-0.04170494943584145 0.07041967313746723 0.0841580666792632 -0.055592544072212674 2.776083137030795 2.754258692863431 2.72110145251246 0.019730223006550286 2.8056411712669767 2.7346041515715207 2.8134201703645787 -0.02692971640348263 1.3327604006405596 1.316307195877905 1.3880112958295416 5.33099403119875 0.03530984454879313 -0.023512146403827552 5.335840904437742 2.7241146659224684 2.7116942153827543 6.664008506167028 1.3245262300877683 1.3139005173523648 8.18145283270796 0.03902473557024673 2.7958803924131694 8.098295926996645 2.715794001981518 0.016780798470308892 0.08675178715669836 5.6817593175410765 -0.08251036763482336 2.63826241000263 5.649832445636675 2.696008639440016 1.3805101567414029 6.987306735931931 1.353643148044336 3.9613096031528694 4.110806937582577 1.365751141219324 5.342676044437052 5.608098304682329 0.028767700901873527 6.770466730648533 6.962820457743956 1.4040990660272221 9.548713283550669 4.094078035145164 1.4198084276517042 8.023526717602103 5.600468506679303 2.762049584801905 -0.08559926275947206 8.36271486393927 2.7536272911298663 2.7247622851663134 8.43639858131241 0.028243334736156124 4.040841354732947 9.791571581159818 1.436837894612972 5.46333756442171 8.470071538490284 2.725616407374389 8.189762684975392 8.303807460765844 -0.016536454648758102 9.422960546505468 9.827875018505095 1.29267179639595 0.08459377712211703 0.013115641147047044 5.367880217746752 2.6266668901524874 2.7825625729712993 5.505216581801223 1.4120780810849425 1.2980127631148035 6.727155166527627 4.054158093007466 1.299519910403484 4.012154741382473 5.427699044997912 -0.03748947793041433 5.366230356367607 6.680047623833868 1.3479097175767083 6.910140578518017 9.437481705210109 1.4204863195814048 4.148137483912248 8.18222262386258 2.767936541033516 5.416200830209449 1.3763098215789038 4.110373389474427 4.074716490205644 -0.03834576247319409 5.6868602651077875 5.3955105305943265 1.4282912666954544 7.052671951698823 6.739906454277053 6.747594635317086 4.285984158956861 4.115678677670665 3.9812203811072027 6.963503755510417 4.148838080356341 4.14823587014128 4.16719630199321 6.832997125618495 5.482943453182782 5.580843156905896 5.461514716266247 6.6617239995522635 6.944788748647389 6.89788662775051 9.471122227367422 7.084805326567456 4.007059199652523 9.370475277402889 4.150937707353915 6.8710401612331315 1.412817599553707 9.810909340417595 4.075502498870544 2.794608939607224 8.481977353370448 5.483437546662643 6.759593430589522 9.724125118240337 4.085268683561112 4.121553741061404 9.765753304794186 6.9188753295547825 8.162569163738024 8.448114110738624 5.423130031768381 9.555717085656891 9.721146502185592 6.798131640851373 0.0445851792615552 2.881584528405785 8.200641390871162 2.7205770863467422 0.020737870978609296 8.186981922546062 4.137477173821581 1.3660019720449867 9.543045804291513 5.392531914539581 2.802785808290359 8.257199417388707 8.080538834407484 -0.008195248528119413 8.220990041603054 9.547765099782971 1.3632395894606404 9.47988076408593 1.3682767481535834 4.199308053514803 9.606617363421448 2.718820189399751 5.5165191052989755 8.241827379978046 6.845741926363808 4.100727214359931 9.491196261591906 4.026143965749933 7.027192080714365 9.577351244370304 8.011831730355576 5.6524813056490615 8.14099446922897 9.517098869010994 6.927951729474778 9.48369620367112 0.02361161380021106 8.404251151268202 8.215460951764952 1.3701071644805105 9.756210921745483 9.51510735874862 5.382824112886022 8.362787302151855 8.23233364946018 6.776867241372341 9.849102658294157 9.538477872229336
0.033703427508982184 0.07747162145184856 0.03839730961267706 -0.06621645943637829 2.7967875929491623 2.6962155271922787 2.915701905695869 0.00015232550096125192 2.6474036666620284 2.7852559883578736 2.7170649390942194 -0.04869112846652522 1.5220386622789175 1.3837677275396905 1.4207264074210668 5.756118907131466 0.054420823976756606 -0.03195337675349402 5.698504889319744 2.689386831401038 2.6123101279146446 7.099769739403183 1.4452745081537557 1.3531717402503178 8.67138527472829 -0.08056552162692822 2.7685001832521356 8.695820541756563 2.7586170790823608 0.08451244460739088 -0.016976959166392566 5.437209109981945 0.0635580973603434 2.842880161202993 5.540599761675134 2.604544912376753 1.3624500557644244 6.823823631884044 1.3654897957613843 4.384353300730478 4.1526617004202375 1.3661927497398945 5.717888591401325 5.513483565829943 0.018989912453169406 7.0725971267057846 6.92137852438485 1.3073059677423629 9.9513358391721 4.124237761940868 1.3360932307499511 8.557625205599296 5.5444078991991645 2.699169513573883 -0.06626610626632122 8.223113892140208 2.7136754146135704 2.893290875324814 8.330970501854173 0.01772843163780141 4.267792699057884 9.611742495666128 1.4066413760988496 5.691191008599515 8.356390807121995 2.760051195465485 8.623666772793829 8.301971111482283 -0.08405433976746297 9.949138966947125 9.618224791984813 1.4158734297941455 0.05651953087888941 0.09063931475716569 5.444247676463398 2.7919368719963296 2.752712491330285 5.340753217762147 1.536361772717452 1.397727513450006 6.786736321579634 4.317942767322505 1.3771692125054578 4.007311579065966 5.713061565526419 0.02485049506052306 5.317088604935034 7.130813676499087 1.3353699667046461 6.766927236432407 10.00870500784524 1.3502459622948177 4.088339718881 8.57786193048626 2.7449145540181132 5.357916352540826 1.4688341856357627 4.081559541582657 3.9845733309521054 0.08233136910103458 5.4447881499075494 5.443255868201584 1.5183975186374217 6.811735757129986 6.780868968950016 7.063947294925273 4.064286958110696 4.0295048403874985 4.267428246192621 6.882361757734931 4.049802495474847 4.352702318304818 4.078536726641359 6.673137604647954 5.689169028616385 5.473695016641819 5.452678610857343 7.1365275752907005 6.79981713293255 6.801101180488803 9.954249205420114 6.824985819039527 3.988293458186693 10.05033048974125 4.142964771862748 6.801645038944086 1.3513460909128712 9.7207951426469 4.093424005601972 2.9654412592764166 8.18285144139354 5.2938358351290375 7.144856959350669 9.713595223968131 3.9576907008750557 4.34220765545711 9.718524928514055 6.6654547577142855 8.655551320987628 8.246055240922018 5.364836443632643 10.051009748641835 9.591547519249799 6.7886951146882915 0.04350077806340108 2.6925856669212243 8.172255228211858 2.9367510332546254 -0.029107710728129007 8.007494324686945 4.3844413110199225 1.3694987772792757 9.370309961653678 5.660264418556205 2.770065186732382 8.121240853771411 8.567414657794405 0.04470020034134042 8.03849199996404 10.10069719871835 1.362319168667302 9.375551087223789 1.4744397640711369 4.130021617629218 9.518926618750784 2.7717655906579273 5.5052072136110475 8.009823212346086 7.251936144841209 4.19247732969742 9.391223688767136 4.288520250559055 6.792217782940151 9.504610278334514 8.646842815680822 5.4694073358740205 8.021862568607245 9.9746168174042 6.911831664654235 9.385961124793186 0.07504569680691012 8.288604830857194 8.074966623253472 1.494625713791113 9.648125723654985 9.495123220467239 5.682464449900001 8.243957662356928 8.053926522391068 7.118171788256347 9.65950951609349 9.530555260327871
0.09701988682736304 0.05909927246936921 -0.10004668117703416 0.025221431593858912 2.554213825987922 2.679205966332815 2.709374871337938 0.08937277992628213 2.86646661087791 2.697510282604043 2.691978593371611 -0.07875117990142516 1.388866843187406 1.3014625923804504 1.3426047396951717 5.392884004490672 0.03404364688951801 0.01712809508460959 5.38349649083853 2.5806148171445202 2.76108186628346 6.773915678922183 1.2949394054400931 1.3003709433888964 8.157224125868188 -0.08930935077998389 2.687279272585339 8.077711796211185 2.5773610132186233 -0.009637891861213856 0.012844958521416873 5.292933023429105 0.007721663967782352 2.754871373906432 5.2665509497371925 2.7410749781905417 1.3421907810561724 6.592394815721059 1.424184636963091 4.114625351734979 3.964024528166196 1.3759695834400942 5.495093953394089 5.166734616512504 0.04295933671656402 6.694000518546583 6.501763467997176 1.4493604440832968 9.393906642413436 3.9646120823634843 1.364986326002133 8.170686683971983 5.330604372370067 2.748112275053527 -0.044207889385803355 7.916439296975729 2.78901962324774 2.791426592430953 7.876180706541023 -0.05567298577722309 4.065779345125121 9.181511364053627 1.3412059601004889 5.333049176482651 7.979811690879929 2.8689759569288324 8.196290916027714 7.929911870207887 0.04623428369122657 9.513311453923881 9.288830141214154 1.3191292788125752 0.02305037432319407 0.04208134379675132 5.635184456142048 2.80583613656106 2.574735936795508 5.584574674148282 1.3245051771593623 1.3032686538618903 6.833313179658358 4.101555609221418 1.2965974655801702 4.145819138209237 5.511759126989925 -0.04414334744746478 5.471350309629775 6.67839027180497 1.2268910593824682 6.8769045822538235 9.548013873701269 1.3516072273013624 4.226871572050045 8.208500470294107 2.6876798777198543 5.557411420444064 1.4514680722076632 3.924283386030238 4.237178251927491 -0.05570748233047303 5.304668528286323 5.619471832532724 1.2953166419417617 6.56727242261879 6.970769703646879 6.713752577262268 4.032160784795006 4.230351272760126 4.107616987465042 6.589558308810284 4.18432730676452 3.9639032338338005 3.8494336550221755 6.9790544403870625 5.3204924310996775 5.2987929863134315 5.592985156389022 6.737714328266484 6.4848100812628955 6.8855999392568865 9.40435019571184 6.545633068602722 4.20204963279866 9.429510423743482 4.020823659488223 6.86855307799122 1.3188110202890435 9.190994577821236 4.209509790636968 2.6358482500658167 7.8050332346511055 5.584259754000872 6.864335596158406 9.155174914835367 4.134800271425986 4.091935522032849 9.239314233796023 6.9850668557809135 8.18776915458294 7.894802168543742 5.468145468553653 9.555475144331616 9.270373372433403 6.8652836949767595 -0.00871316167570771 2.6222020812753692 8.268844957056595 2.7314537782099326 -0.06684875623815957 8.33335573721804 4.126141636560254 1.289699267722225 9.629626041938359 5.417908471893394 2.6322105328860097 8.233404756156474 8.168127262279247 0.0791807176289888 8.286255701319446 9.463511784535468 1.3796028494517398 9.784695838341067 1.3355029008938475 3.927902185745359 9.685489315154475 2.661273322603054 5.1766484807997175 8.308765258711045 6.693277203720375 3.9781247161090936 9.685647331624201 4.099433514800527 6.536657288005498 9.663794321536392 8.150856729813476 5.17127146966089 8.26306177682305 9.443198878631462 6.575176584481183 9.637849575116324 -0.011742181609459487 7.815908551261156 8.418404207275639 1.387000690935789 9.218686407744606 9.679267694857044 5.350781517645155 7.936228077828744 8.295491875254104 6.700049656077764 9.14261037990811 9.792410825556608
0.08298882819260553 -0.001470998431774396 -0.04178554920259144 -0.06857326245979259 2.7179662102738895 2.8734476799323776 2.6433973158131594 -0.003431235181259473 2.776985644377314 2.6988673095042 2.6683046903011727 -0.014878536221384778 1.387525837728484 1.3815159773200962 1.400402546470914 5.3513828455071755 -0.033218953424691 -0.0033414867650351427 5.388511327502028 2.687635623561589 2.8362414889429886 6.735777339103735 1.3166727465980173 1.4720830742192539 8.063165171004632 0.0821493521530438 2.7490312017091965 8.065862001462886 2.786193612983354 0.01922914542250325 0.029487827194096563 5.511742469935319 0.021083216362552226 2.7477780073606985 5.628797389042343 2.880004786781157 1.2986037636291456 6.855995342636225 1.3921829049362222 3.9614589738768924 4.19856881707717 1.3426231728014182 5.455741647197098 5.541049705804086 -0.06662506513199615 6.759941552925696 6.833111685484783 1.3125322800300094 9.384497173796149 4.182402062735102 1.4577441229880956 8.143847902697425 5.5065830304953005 2.817936095511867 0.09027158382134572 8.314953258229112 2.819354558285364 2.660175891675586 8.30264568578469 0.005198841183726475 3.961161271813319 9.762026075629558 1.4861122839651497 5.3829523981605245 8.201700607389933 2.92392678608704 8.186576904763252 8.286870759893942 0.08184179965354335 9.475467044075435 9.651587365986877 1.4117414927158414 -0.01276507046858987 0.02734371564063969 5.653020705479865 2.7788419043031247 2.7647787652779243 5.718609285853759 1.3016081465868992 1.3917221234334116 7.025390005795247 4.000518141313449 1.4776452870394006 4.281244620305872 5.326477660004923 -0.04638351379476722 5.697800787204283 6.694662714037064 1.303162326477613 7.016573865640527 9.352870707513 1.298798583361925 4.1519434203557495 8.028882370499819 2.6830628323056716 5.622374904817899 1.3382649021501343 4.1033380860129895 4.204757079825126 0.07568418270624963 5.614361027944795 5.623562429593551 1.3877961774700378 6.932603277333857 7.129129324514645 6.807645025134688 4.108110074973211 4.205258357564525 4.098850665201773 6.9561381577493675 4.213064280790281 4.054840011972547 4.055495613208136 7.0549259906760975 5.329951580408533 5.4318543400739765 5.70263625675159 6.779966394672529 6.9926570072096235 7.131105978657342 9.499513052666272 6.913574424108538 4.181860288759113 9.476859239019793 4.1249751157732195 7.0352601425941605 1.3072010052077079 9.660518427894079 4.1828628442379125 2.7973103771734826 8.231915177856871 5.689508909139461 6.792565102223239 9.659533384301373 4.277829802517823 4.092956821038748 9.635404194251597 6.963454842657411 8.019733504509341 8.278709126481932 5.614119145018141 9.546927578754739 9.668948212061881 7.046592521881804 0.007150321990165276 2.7748831235533276 8.529154270941689 2.704241269548852 -0.07784908962444141 8.384443705723001 4.125431519304506 1.4161917007691114 9.873800066586796 5.453146604576758 2.8157405427930136 8.459878344052433 8.100480811282099 0.03679794514485638 8.501344301333836 9.435011303722996 1.3214403575867146 9.803638694956986 1.3779588754575465 4.2335083133104545 9.862653751088887 2.6451342760149643 5.605472651259944 8.427723237707863 6.7774512500324855 4.084531414842469 9.945819887128179 3.9661806161645963 6.872899785179943 9.822709138911774 8.191385011988539 5.444682891129652 8.446019875195939 9.388150591032208 6.8257643547760765 9.866387066305242 -0.028572831145760706 8.233109269589807 8.371867982522788 1.3507443099768395 9.67137470277858 9.93279104387532 5.329615571094132 8.340488871630695 8.488967775837923 6.7861163501696575 9.746614521375232 9.946697670418569
0.016969594040540957 -0.05324849013316038 -0.0660551433931915 -0.002981812367159088 2.8777431426587556 2.6654696704582577 2.7481991257886524 -0.06764322423259672 2.628037563532967 2.785878195927644 2.739412604146426 0.025548881333879492 1.3710731897733905 1.3846099951434931 1.3742654577487468 5.3049287457483265 0.0773381410000002 -0.07344578600145799 5.294931030605864 2.831088570331401 2.5620489928321644 6.761390003535253 1.39459160398941 1.2454043478521812 8.091696009245291 0.09047765772197561 2.6499571593785505 8.148833633117684 2.8247459107517074 -0.07272744517552013 -0.01042077386506264 5.57305778061618 -0.010529222928470302 2.6078885865543064 5.707129814321829 2.5756953210187774 1.2998973178317723 7.079980065480761 1.4166239439108133 4.125230571530846 4.116094006377026 1.2722095203166248 5.357118515321883 5.518677554712409 -0.041712086794032814 6.690702689255521 7.071434064533616 1.260225361933527 9.467683766971325 4.117340633729663 1.3000809296123932 8.06278735445198 5.634928508166801 2.586752830473946 -0.08771703849404403 8.375380505316976 2.600928518940361 2.7672475058366905 8.44254698317182 -0.04654075449843124 3.9491522426809302 9.737668247201242 1.4184665042356404 5.387007506698274 8.397295806150147 2.725358249780655 7.986190103093083 8.374500027772477 -0.0065477464223752686 9.333697633513921 9.832974572627617 1.2470847714584485 0.0567618102863273 0.009607942766056725 5.302764059492585 2.66462462676616 2.818640550607787 5.338103421620039 1.4445007219720967 1.4636962061952523 6.58402209720858 3.9779846610039247 1.399927083158446 3.8929595215392174 5.442428199358898 0.055117894285563684 5.349246831323452 6.830361460356318 1.3431330602790275 6.593075983373464 9.36641274305753 1.3677853577718637 3.9460705712751882 7.98820875892681 2.8508896513046746 5.375857654476244 1.2816027124620724 4.118920124544244 4.07661532603733 -0.05266973721061852 5.638761806744676 5.35033561696994 1.2701114067532728 7.029365491709371 6.734142444792355 6.702804960479955 4.1267134245661525 3.903797985361365 3.964130024715321 6.991950564833729 3.893151723344663 4.022241542652177 4.204195448481961 6.5968115704189625 5.369313129313178 5.545223952679019 5.337886523493224 6.638009329476636 7.076145693149783 6.708185537279317 9.34811813768783 7.106763762883142 3.9310423228449545 9.48928660565151 4.208233833902518 6.725498732312834 1.4417229226945167 9.910371770048284 3.9786740104960807 2.778359776700115 8.51858803042334 5.228008294705411 6.804264964939886 9.807030550151817 4.07177914206121 4.068902557498149 9.827189190908404 6.703346132043889 8.063444491351046 8.490385905171834 5.411463307373253 9.405136574965786 9.73427303988941 6.735250557994698 0.0626513460565353 2.8355231706469812 7.9470926051049675 2.7109151967915817 -0.04042465682348051 7.899338509600095 3.955188882626256 1.4174926101711776 9.26411843243653 5.428219224546289 2.738757614753568 7.879462265909607 8.161575861191535 -0.07990441091628042 8.031715087156034 9.486930791343427 1.3334682085985092 9.374195305548408 1.3685240999067592 4.16974193266452 9.313678580660728 2.6146328297945387 5.71097599793694 8.010665231323916 6.745707839465266 4.250328176801235 9.236011871211195 4.093141460046313 7.112436400526535 9.225157301092503 8.095741910937571 5.526160540087537 7.914984166064579 9.438612975459455 7.006624474739958 9.293400753309701 -0.070838713467262 8.479560326386922 8.055477243326443 1.413798899496699 9.790757821875152 9.241210983736146 5.356386215705605 8.442926018017195 7.9419922778654986 6.7872534945283265 9.83040937646444 9.352844798847439
0.012313554771013195 -0.04729712705299748 -0.007777563252083139 0.0747726227959785 2.7797830567621795 2.927695919723268 2.7228131238356035 -0.013285474064088055 2.8261016377996495 2.809470773350648 2.7521286395129736 0.0788071923159813 1.3180241711537857 1.372850359366887 1.4274103742281348 5.6748357416830375 -0.03989286916575447 -0.054723474015083116 5.655781705723802 2.8084237512031085 2.8538013376522833 7.039985849559791 1.3307143446508654 1.4392114624627994 8.369954687934717 0.0610442627812961 2.804149515221063 8.463044676043932 2.764509565962257 0.006847613201209238 -0.09529558223224786 5.545921691994079 -0.0007819532494284098 2.858972390072938 5.5196014548653665 2.779209845270014 1.4686087077170875 6.740143225377485 1.5052069913700665 4.261247606037666 4.035733614247004 1.4348146321153776 5.736927026611873 5.466363471133449 0.0713929943450591 6.987486745381358 6.860970464766566 1.4647652086944734 9.92991718247839 4.033991890695664 1.3551934573914464 8.526301159670716 5.558490375579525 2.772673688024086 0.0859397545826602 8.26539052989851 2.7881603383962394 2.8968142886395563 8.155967879850671 -0.0957638706189112 4.300524190015312 9.609345066010038 1.4394257264887729 5.5683111782545485 8.184652752441286 2.948511559401202 8.473092996189836 8.093466842583506 0.011610017737276051 9.93753791329909 9.55565204733636 1.4501300921575018 -0.08091228114848206 0.0073854821736268035 5.702063839787781 2.8346876611909724 2.8199697106233406 5.723436124151749 1.444056701029526 1.287758825258183 7.2572860188702295 4.171645482846102 1.4236154711701743 4.264621712219875 5.558851531953201 -0.012104813013750524 5.71958489395294 7.100376275725745 1.3771930714809442 7.106360206100609 9.788818799106247 1.4471072022652904 4.356672409357744 8.504893532787 2.798183256106074 5.70347864503145 1.4972482977042743 4.153820703901857 4.245933250449284 -0.012144573348467224 5.534710382057712 5.68340078045326 1.4648127002053848 6.776684077435874 7.144500307177602 7.143391435620503 4.181929051639079 4.3609521676085 4.245077298799133 6.74261278394489 4.235359210322127 4.1939885820494025 4.109758521859559 7.210406375331757 5.558648312464649 5.428655211469629 5.711545575163972 6.985357358566531 6.842947988602479 7.260369653718257 9.982743204964493 6.815803828982138 4.390614481760899 9.9329400723706 4.1800249733876464 7.124552768140982 1.4737841779527112 9.461587931026589 4.200746734497499 2.7522898897593246 8.286803679050937 5.7096260345601495 7.136773548797657 9.547632608714752 4.361661226910947 4.3386090684052 9.567991004543444 7.09236456828033 8.483399758511398 8.125524716902586 5.716607286664156 9.86235885152601 9.520920290507583 7.199301092954634 0.024048375781149992 2.6808052257536685 8.503035841592736 2.732629508695659 0.0773095530416523 8.544952070014073 4.278808420537541 1.4090930089149 10.10838475821552 5.6678920410062625 2.8107662975901673 8.620177518844326 8.405871523628804 -0.07913742398487832 8.609099847810755 9.823937114744771 1.4526272620684588 10.039523171847422 1.3852887174107609 4.156487959689102 10.008110298513747 2.843009720137926 5.496634339297763 8.547063785569026 7.125658326336856 4.001782706213912 9.938251390416507 4.139812917090416 6.792361798305418 10.093982681418137 8.397532897875719 5.430200342254869 8.642483066620393 9.814587913817636 6.78646401532244 10.127027937382682 -0.08843471558613306 8.282723826927507 8.60720460518926 1.4329160761326554 9.6164798371842 10.078986408507488 5.6357071545068385 8.161937452326887 8.641810454291436 6.96087824582595 9.52706105331383 10.02019633581388
-0.049238155978686235 0.07644254170886938 -0.05016196358765132 0.04496766073138242 2.811287550358078 2.76481856126585 2.658587454056176 -0.08062279933869186 2.6812664232696704 2.7876464225481885 2.7599028670535546 0.08451542456279262 1.3038636384516313 1.3415468675118336 1.3267964009642923 5.531088820202931 0.020939639136542 0.07172762619547003 5.423659808621192 2.9143671087772165 2.6634501336682006 6.869145747858673 1.3405677893621613 1.4171005686885119 8.280634664710066 -0.026598665722839736 2.7240909405858713 8.25975255205467 2.943667263173403 0.05444148259670327 0.07068763765399774 5.597774419521631 -0.020543721589842676 2.7015405599772877 5.728930284649866 2.6720238352991457 1.4002103426364445 7.203965659701828 1.3663701081107282 4.164594635368165 4.2441165357735855 1.3390856364950303 5.542519670397378 5.599117832051885 -0.06675440550203038 6.868578378838761 7.210159344171702 1.3739320204556635 9.708254683656463 4.23022783847299 1.275014672142851 8.294655334526228 5.694866712020884 2.691570431215819 -0.09159230971376571 8.606638361325293 2.747545953309705 2.8196277621537895 8.574053557652787 -0.048990002530612586 4.184793198071142 9.911187805669783 1.4317043991076461 5.4145898000941 8.471695900173499 2.709692400746507 8.289181295055766 8.516910586382735 0.01832726011045757 9.675069799827705 9.880946924111354 1.2869000943353603 0.08213991928259667 -0.07811306560249245 5.384774163308051 2.658952916406975 2.932508253801619 5.4570341914466605 1.2828360176380451 1.3250435352447174 6.717349155701803 4.138911881462761 1.3767147229847438 3.9973279316643398 5.499038674414 0.030848857506210255 5.309283628463609 6.928448782097184 1.3640013706518435 6.7966330543911155 9.665958056402527 1.3648507322263863 3.9442422692702936 8.328092883683933 2.8702928004588992 5.278109915534467 1.3110623443862042 4.258608697141086 4.112961798615569 -0.04980326905816304 5.786075511860354 5.394178051019823 1.3615017886476106 7.122399877260456 6.6260602699768185 6.878837267976169 4.27003390748444 4.078685039615286 4.154418088056708 7.058742877978472 3.949118484524941 4.068935993016647 4.237268628576971 6.623574223615208 5.5747333718679934 5.779400184107173 5.412159024273197 6.842578665301953 7.189236624588438 6.682664071482419 9.681538709030898 7.168877890114432 4.0023361194345535 9.573313350474887 4.250278637077342 6.749261689124074 1.3852669931815367 9.926461650398716 4.100567661854508 2.7606213840827496 8.453709287069033 5.41559369358858 6.834029779015815 10.0598926314577 3.9714906458389994 4.134569196121472 9.898751934010637 6.649529946313494 8.279488646968053 8.560510019239057 5.3208825462206155 9.532725598102004 9.934006643190374 6.686226201432494 -0.0012960377810755633 2.861465305528788 8.05766879161589 2.69273336851111 -0.07692080108152041 8.010037993198592 4.100880109605037 1.413858782280495 9.437182008712774 5.414982333730143 2.9018229519770937 8.0735686598161 8.321452523007526 0.0010253249286315813 7.965186513399716 9.70861450615617 1.412664261819086 9.433856752508587 1.4567543617204626 4.229338997940799 9.440800537173775 2.7635146276932443 5.772643642498258 8.046992553497631 6.9310735687956715 4.186320469747013 9.326516850574112 4.155950999583673 7.152753555840738 9.367748673941767 8.254279640554426 5.70360622527395 8.065870263074725 9.633235640363361 7.034017770788589 9.3487446317002 0.025046578702160906 8.545138041101113 8.087608505125976 1.277333778912121 10.055637927793454 9.304069115255412 5.455852078657656 8.501376180533326 7.962981331622515 6.813897766555732 10.041541683972653 9.294198247873174
-0.024519470141655442 0.0537613162393894 -0.03847087764077307 -0.05597887692503668 2.5992750844961163 2.7745473255433546 2.8044933365765514 0.07895477281927332 2.6456001954725967 2.771978800112096 2.641451210963966 -0.009813600211685045 1.362758104657441 1.3421953708198135 1.4294447594899884 5.526664203586926 0.048769569252443454 0.06767807435279379 5.421298774799326 2.6950795182711014 2.6497637103687843 6.7515926404877025 1.2902760606338248 1.4684007285307468 8.125419547297344 0.08545656239004462 2.697434558777482 8.102799087037198 2.5679486866449888 0.06873432175598768 0.03583975977080649 5.372995295670832 0.042045352979835575 2.7169824009303474 5.37736335371494 2.744981340030884 1.4331745982037005 6.646099791378447 1.2874146920071832 4.147399578664547 3.996622217872328 1.334055000621442 5.427957045466868 5.197572162137423 -0.07896595004047115 6.756556444421653 6.616082246129585 1.3380296204793865 9.60673779036641 4.000977980973118 1.3641854358044028 8.22778165674909 5.279512370738633 2.6546325079225537 -0.09776044748460372 8.025297352973642 2.7757868793741927 2.6444411176343827 7.928072294384413 0.03617284096250149 4.041678714242856 9.158410506344934 1.2938605954719653 5.422845702213104 8.01921023830931 2.7498009578113836 8.202746916710215 7.850173768968333 -0.060711312380193234 9.447943008808997 9.246142750970854 1.4606582674070177 0.025182279358686107 0.009220089766080857 5.386933290504513 2.6736907877869553 2.6040075199512724 5.419626662508133 1.330503997446895 1.2642990808479737 6.802985503555274 4.129910580656318 1.3214515659987816 4.04975425655828 5.50901760675981 0.008186196805282604 5.40867522117851 6.804294356157539 1.3783033838993677 6.847907873271429 9.475778760480045 1.3129915272741521 4.172444378202499 8.12097771959333 2.6332605432702043 5.507147657653414 1.4041797686944386 4.0000044450067875 4.121646143302651 -0.0400312177199886 5.371892103938608 5.474046317076074 1.3129300525575642 6.6500554099603555 6.792721461329316 6.847105348789425 4.001282001389699 4.112975972819503 4.022166639197823 6.543710856595828 4.151246778200836 4.158934470940695 3.953686040363026 6.798333544092742 5.49891898740758 5.2165689672852364 5.401025530990723 6.713595677025717 6.617115021368264 6.871910955793744 9.577609951924893 6.605223575735904 4.045360490905417 9.486953746233624 3.961126716514414 6.850480869591166 1.438702851808142 9.232353413179105 4.142008804880838 2.6518572038991355 7.919983339403551 5.454020089855942 6.885598580872594 9.326026350871667 4.141821027564714 4.177527778403268 9.197139577795376 6.830826843836921 8.12948582036911 7.888377511022479 5.4733220331424555 9.584877381147717 9.334430503490307 6.830148386510214 -0.025005679263760572 2.5651219674040604 8.202509959620821 2.680539071214859 0.09020911684335724 8.249216213840146 4.011128015542858 1.347984053678164 9.57778655201982 5.454271577332892 2.7142205095723666 8.206132497011035 8.218534741652133 -0.0713699105144334 8.231714920888603 9.48159985727987 1.412600687144875 9.508739268070292 1.4396193839463631 3.8778061210952726 9.586172821084542 2.8103803789814426 5.270025145385925 8.143844078719829 6.825584727095144 3.8703240892254525 9.626890320186078 4.027007493698599 6.627218111608973 9.537028814921973 8.15567516735772 5.289752940800075 8.230170228919064 9.543945279399184 6.683232755641842 9.507969157529763 -0.05647626326833962 7.9683136438629205 8.148420033078215 1.2734699908407843 9.187460104238065 9.54990944463034 5.460366516052064 7.890868913627473 8.285604775171766 6.878689940450221 9.297374662053176 9.614827863069392