
     Program PWSCF v.7.1 starts on  8May2023 at 15:26: 5 

     This program is part of the open-source Quantum ESPRESSO suite
     for quantum simulation of materials; please cite
         "P. Giannozzi et al., J. Phys.:Condens. Matter 21 395502 (2009);
         "P. Giannozzi et al., J. Phys.:Condens. Matter 29 465901 (2017);
         "P. Giannozzi et al., J. Chem. Phys. 152 154105 (2020);
          URL http://www.quantum-espresso.org", 
     in publications or presentations arising from this work. More details at
     http://www.quantum-espresso.org/quote

     Parallel version (MPI & OpenMP), running on       4 processor cores
     Number of MPI processes:                 4
     Threads/MPI process:                     1

     MPI processes distributed on     1 nodes
     612675 MiB available memory on the printing compute node when the environment starts
 
     Reading input from pw-si-14.in
Warning: card &CELL ignored
Warning: card / ignored

     Current dimensions of program PWSCF are:
     Max number of different atomic species (ntypx) = 10
     Max number of k-points (npk) =  40000
     Max angular momentum in pseudopotentials (lmaxx) =  4

     IMPORTANT: XC functional enforced from input :
     Exchange-correlation= PBE
                           (   1   4   3   4   0   0   0)
     Any further DFT definition will be discarded
     Please, verify this is what you really want


     gamma-point specific algorithms are used
 
     K-points division:     npool     =       2
     R & G space division:  proc/nbgrp/npool/nimage =       2
     Subspace diagonalization in iterative solution of the eigenvalue problem:
     a serial algorithm will be used

     Message from routine divide_et_impera:
     suboptimal parallelization: some nodes have no k-points
 
     Parallelization info
     --------------------
     sticks:   dense  smooth     PW     G-vecs:    dense   smooth      PW
     Min        2107    2107    552               101826   101826   13808
     Max        2110    2110    553               101827   101827   13809
     Sum        4217    4217   1105               203653   203653   27617
 
     Using Slab Decomposition
 


     bravais-lattice index     =            0
     lattice parameter (alat)  =      20.8646  a.u.
     unit-cell volume          =    9170.8855 (a.u.)^3
     number of atoms/cell      =           64
     number of atomic types    =            1
     number of electrons       =       256.00
     number of Kohn-Sham states=          128
     kinetic-energy cutoff     =      30.0000  Ry
     charge density cutoff     =     120.0000  Ry
     scf convergence threshold =      1.0E-06
     mixing beta               =       0.5000
     number of iterations used =            8  plain     mixing
     Exchange-correlation= PBE
                           (   1   4   3   4   0   0   0)

     GPU acceleration is ACTIVE.
     GPU-aware MPI enabled

     Message from routine print_cuda_info:
     High GPU oversubscription detected. Are you sure this is what you want?

     celldm(1)=  20.864624  celldm(2)=   0.000000  celldm(3)=   0.000000
     celldm(4)=   0.000000  celldm(5)=   0.000000  celldm(6)=   0.000000

     crystal axes: (cart. coord. in units of alat)
               a(1) = (   1.000000   0.000000   0.000000 )  
               a(2) = (   0.000000   1.013178   0.000000 )  
               a(3) = (   0.000000   0.000000   0.996538 )  

     reciprocal axes: (cart. coord. in units 2 pi/alat)
               b(1) = (  1.000000  0.000000  0.000000 )  
               b(2) = (  0.000000  0.986993  0.000000 )  
               b(3) = (  0.000000  0.000000  1.003474 )  


     PseudoPot. # 1 for Si read from file:
     /home/ppiaggi/pseudos/Si_ONCV_PBE_sr.upf
     MD5 check sum: 8553c464762ac42b85b1eed164b4d029
     Pseudo is Norm-conserving, Zval =  4.0
     Generated using ONCVPSP code by D. R. Hamann
     Using radial grid of 1510 points,  4 beta functions with: 
                l(1) =   0
                l(2) =   0
                l(3) =   1
                l(4) =   1

     atomic species   valence    mass     pseudopotential
        Si             4.00    28.08500     Si( 1.00)

     No symmetry found



   Cartesian axes

     site n.     atom                  positions (alat units)
         1           Si  tau(   1) = (  -0.0053047   0.0008240  -0.0048811  )
         2           Si  tau(   2) = (  -0.0058253   0.2694898   0.2544785  )
         3           Si  tau(   3) = (   0.2564352   0.0053099   0.2521502  )
         4           Si  tau(   4) = (   0.2468747   0.2618302   0.0044954  )
         5           Si  tau(   5) = (   0.1311003   0.1281636   0.1320175  )
         6           Si  tau(   6) = (   0.5079419   0.0000680   0.0026802  )
         7           Si  tau(   7) = (   0.5055219   0.2531388   0.2466232  )
         8           Si  tau(   8) = (   0.6371936   0.1364900   0.1363855  )
         9           Si  tau(   9) = (   0.7724439   0.0061961   0.2603646  )
        10           Si  tau(  10) = (   0.7731525   0.2604233   0.0075785  )
        11           Si  tau(  11) = (   0.0057354   0.5195341  -0.0092595  )
        12           Si  tau(  12) = (   0.2569368   0.5164156   0.2591257  )
        13           Si  tau(  13) = (   0.1328514   0.6604832   0.1256552  )
        14           Si  tau(  14) = (   0.3875624   0.3918985   0.1217081  )
        15           Si  tau(  15) = (   0.5022262   0.5245173   0.0091331  )
        16           Si  tau(  16) = (   0.6347217   0.6561176   0.1337518  )
        17           Si  tau(  17) = (   0.8846554   0.3823032   0.1234720  )
        18           Si  tau(  18) = (   0.7638321   0.5195933   0.2582727  )
        19           Si  tau(  19) = (  -0.0007973   0.7845452   0.2544774  )
        20           Si  tau(  20) = (   0.2569540   0.7843436  -0.0075130  )
        21           Si  tau(  21) = (   0.3866660   0.9194856   0.1342432  )
        22           Si  tau(  22) = (   0.5042788   0.7788471   0.2571492  )
        23           Si  tau(  23) = (   0.7691461   0.7824939   0.0063730  )
        24           Si  tau(  24) = (   0.8889058   0.9065731   0.1290262  )
        25           Si  tau(  25) = (  -0.0083971  -0.0039975   0.5070238  )
        26           Si  tau(  26) = (   0.2558973   0.2585139   0.5073782  )
        27           Si  tau(  27) = (   0.1294931   0.1287338   0.6432225  )
        28           Si  tau(  28) = (   0.3800153   0.1266879   0.3731673  )
        29           Si  tau(  29) = (   0.5042197   0.0049365   0.5136145  )
        30           Si  tau(  30) = (   0.6413475   0.1280168   0.6315539  )
        31           Si  tau(  31) = (   0.8878931   0.1243313   0.3828053  )
        32           Si  tau(  32) = (   0.7636185   0.2521260   0.5034819  )
        33           Si  tau(  33) = (   0.1289415   0.4000957   0.3766363  )
        34           Si  tau(  34) = (   0.0085048   0.5199439   0.5034084  )
        35           Si  tau(  35) = (   0.1368874   0.6583029   0.6284496  )
        36           Si  tau(  36) = (   0.6401144   0.3918501   0.3790188  )
        37           Si  tau(  37) = (   0.3885771   0.6509432   0.3825639  )
        38           Si  tau(  38) = (   0.3903106   0.3925521   0.6360725  )
        39           Si  tau(  39) = (   0.5017768   0.5204944   0.5089921  )
        40           Si  tau(  40) = (   0.6332447   0.6539147   0.6298655  )
        41           Si  tau(  41) = (   0.8866469   0.6597227   0.3847638  )
        42           Si  tau(  42) = (   0.9019453   0.3844599   0.6297269  )
        43           Si  tau(  43) = (   0.1241274   0.9138646   0.3779221  )
        44           Si  tau(  44) = (   0.2502410   0.7817854   0.5065528  )
        45           Si  tau(  45) = (   0.6306277   0.9122765   0.3823068  )
        46           Si  tau(  46) = (   0.3872965   0.9197605   0.6307379  )
        47           Si  tau(  47) = (   0.7684242   0.7869965   0.5142288  )
        48           Si  tau(  48) = (   0.8864835   0.9122548   0.6315998  )
        49           Si  tau(  49) = (   0.0025326   0.2698290   0.7699788  )
        50           Si  tau(  50) = (   0.2638034  -0.0000595   0.7604457  )
        51           Si  tau(  51) = (   0.3911634   0.1364318   0.8905010  )
        52           Si  tau(  52) = (   0.5146380   0.2627096   0.7599367  )
        53           Si  tau(  53) = (   0.7613542  -0.0037869   0.7555864  )
        54           Si  tau(  54) = (   0.8976951   0.1370713   0.8932055  )
        55           Si  tau(  55) = (   0.1323578   0.3831800   0.8882129  )
        56           Si  tau(  56) = (   0.2644222   0.5263127   0.7630845  )
        57           Si  tau(  57) = (   0.6385958   0.3967036   0.8952609  )
        58           Si  tau(  58) = (   0.3829719   0.6573928   0.8983754  )
        59           Si  tau(  59) = (   0.7620418   0.5281163   0.7720988  )
        60           Si  tau(  60) = (   0.9013614   0.6526700   0.8848311  )
        61           Si  tau(  61) = (  -0.0029766   0.7810016   0.7587518  )
        62           Si  tau(  62) = (   0.1246663   0.9092006   0.8987623  )
        63           Si  tau(  63) = (   0.5186171   0.7775731   0.7552842  )
        64           Si  tau(  64) = (   0.6350836   0.9054748   0.8918344  )

     number of k points=     1
                       cart. coord. in units 2pi/alat
        k(    1) = (   0.0000000   0.0000000   0.0000000), wk =   2.0000000

     Dense  grid:   101827 G-vectors     FFT dimensions: (  75,  75,  75)

     Estimated max dynamical RAM per process >     149.93 MB

     Estimated total dynamical RAM >     574.86 MB

     Initial potential from superposition of free atoms

     starting charge     255.9608, renormalised to     256.0000
     Starting wfcs are  256 randomized atomic wfcs

     total cpu time spent up to now is        4.7 secs

     Self-consistent Calculation

     iteration #  1     ecut=    30.00 Ry     beta= 0.50
     Davidson diagonalization with overlap
     ethr =  1.00E-02,  avg # of iterations =  2.0

     Threshold (ethr) on eigenvalues was too large:
     Diagonalizing with lowered threshold

     Davidson diagonalization with overlap
     ethr =  6.30E-04,  avg # of iterations =  2.0

     total cpu time spent up to now is        5.0 secs

     total energy              =    -503.25342695 Ry
     estimated scf accuracy    <       1.81292456 Ry

     iteration #  2     ecut=    30.00 Ry     beta= 0.50
     Davidson diagonalization with overlap
     ethr =  7.08E-04,  avg # of iterations =  1.0

     total cpu time spent up to now is        5.1 secs

     total energy              =    -503.23838895 Ry
     estimated scf accuracy    <       0.35151035 Ry

     iteration #  3     ecut=    30.00 Ry     beta= 0.50
     Davidson diagonalization with overlap
     ethr =  1.37E-04,  avg # of iterations = 18.0

     total cpu time spent up to now is        5.3 secs

     total energy              =    -503.28073741 Ry
     estimated scf accuracy    <       0.03871269 Ry

     iteration #  4     ecut=    30.00 Ry     beta= 0.50
     Davidson diagonalization with overlap
     ethr =  1.51E-05,  avg # of iterations = 10.0

     total cpu time spent up to now is        5.4 secs

     total energy              =    -503.28368204 Ry
     estimated scf accuracy    <       0.01598725 Ry

     iteration #  5     ecut=    30.00 Ry     beta= 0.50
     Davidson diagonalization with overlap
     ethr =  6.25E-06,  avg # of iterations =  9.0

     total cpu time spent up to now is        5.6 secs

     total energy              =    -503.28588204 Ry
     estimated scf accuracy    <       0.00402487 Ry

     iteration #  6     ecut=    30.00 Ry     beta= 0.50
     Davidson diagonalization with overlap
     ethr =  1.57E-06,  avg # of iterations = 17.0

     total cpu time spent up to now is        5.8 secs

     total energy              =    -503.28627421 Ry
     estimated scf accuracy    <       0.00179431 Ry

     iteration #  7     ecut=    30.00 Ry     beta= 0.50
     Davidson diagonalization with overlap
     ethr =  7.01E-07,  avg # of iterations = 16.0

     total cpu time spent up to now is        6.0 secs

     total energy              =    -503.28647712 Ry
     estimated scf accuracy    <       0.00056634 Ry

     iteration #  8     ecut=    30.00 Ry     beta= 0.50
     Davidson diagonalization with overlap
     ethr =  2.21E-07,  avg # of iterations = 17.0

     total cpu time spent up to now is        6.1 secs

     total energy              =    -503.28656276 Ry
     estimated scf accuracy    <       0.00011167 Ry

     iteration #  9     ecut=    30.00 Ry     beta= 0.50
     Davidson diagonalization with overlap
     ethr =  4.36E-08,  avg # of iterations = 15.0

     total cpu time spent up to now is        6.3 secs

     total energy              =    -503.28658249 Ry
     estimated scf accuracy    <       0.00006714 Ry

     iteration # 10     ecut=    30.00 Ry     beta= 0.50
     Davidson diagonalization with overlap
     ethr =  2.62E-08,  avg # of iterations =  9.0

     total cpu time spent up to now is        6.5 secs

     total energy              =    -503.28659202 Ry
     estimated scf accuracy    <       0.00000528 Ry

     iteration # 11     ecut=    30.00 Ry     beta= 0.50
     Davidson diagonalization with overlap
     ethr =  2.06E-09,  avg # of iterations =  9.0

     total cpu time spent up to now is        6.6 secs

     total energy              =    -503.28659367 Ry
     estimated scf accuracy    <       0.00000198 Ry

     iteration # 12     ecut=    30.00 Ry     beta= 0.50
     Davidson diagonalization with overlap
     ethr =  7.74E-10,  avg # of iterations =  8.0

     total cpu time spent up to now is        6.8 secs

     End of self-consistent calculation

          k = 0.0000 0.0000 0.0000 ( 12727 PWs)   bands (ev):

    -6.1767  -5.3343  -5.2744  -5.1112  -5.0247  -4.9226  -4.8793  -4.5956
    -4.4234  -4.3000  -4.2336  -4.1821  -4.0786  -4.0655  -3.9940  -3.9013
    -3.8860  -3.8426  -3.7387  -3.6956  -3.5770  -3.4908  -3.4283  -2.5321
    -2.4264  -2.3533  -2.2057  -2.1337  -2.0562  -1.9956  -1.9532  -1.9341
    -1.8888  -1.8255  -1.7880  -1.7265  -1.6982  -1.6635  -1.5899  -1.5656
    -1.4646  -1.2369  -1.1579  -1.1105  -0.7845  -0.0361   0.0148   0.0555
     0.1184   0.1605   0.1953   0.2200   0.2371   0.2663   0.4131   0.4162
     0.4943   1.4655   1.5165   1.5966   1.6435   1.6709   1.7597   1.7744
     1.8804   1.9272   1.9608   2.0015   2.0250   2.0372   2.0866   2.0947
     2.1180   2.1675   2.1903   2.2254   2.2518   2.2690   2.2921   2.3168
     2.3379   2.3445   2.3617   2.4138   2.4294   2.4621   2.4874   2.6879
     2.7570   2.8363   2.9372   3.0158   3.0449   3.4500   3.5094   3.5828
     3.6400   3.7510   3.8043   3.8315   3.8752   3.9637   3.9853   4.0111
     4.0450   4.0817   4.0983   4.1853   4.2863   4.3288   4.4149   4.4704
     4.5065   4.5259   4.5808   4.5872   4.6388   4.6832   4.6965   4.7072
     4.7140   4.8036   4.8192   4.9378   4.9621   5.5759   5.6639   5.9323

     highest occupied level (ev):     5.9323

!    total energy              =    -503.28659352 Ry
     estimated scf accuracy    <       0.00000073 Ry

     The total energy is the sum of the following terms:
     one-electron contribution =     130.85841366 Ry
     hartree contribution      =      40.75871546 Ry
     xc contribution           =    -152.40344417 Ry
     ewald contribution        =    -522.50027848 Ry

     convergence has been achieved in  12 iterations

     Forces acting on atoms (cartesian axes, Ry/au):

     atom    1 type  1   force =     0.03030245    0.05458981    0.11307853
     atom    2 type  1   force =     0.06655776   -0.04774238    0.03027060
     atom    3 type  1   force =    -0.02375288    0.04410655    0.02267609
     atom    4 type  1   force =     0.06884234   -0.03920415    0.04990719
     atom    5 type  1   force =    -0.03338216    0.03518515   -0.01280272
     atom    6 type  1   force =     0.00489459    0.09876890    0.04936736
     atom    7 type  1   force =    -0.00544951    0.04535929    0.03030990
     atom    8 type  1   force =     0.03538761   -0.03064374   -0.03513737
     atom    9 type  1   force =    -0.06674075    0.01686967   -0.02079081
     atom   10 type  1   force =    -0.08764819   -0.01691865    0.00550280
     atom   11 type  1   force =     0.05136903   -0.04387819    0.10405132
     atom   12 type  1   force =     0.02538566    0.03256948   -0.04374152
     atom   13 type  1   force =     0.00089741   -0.03669298    0.01030398
     atom   14 type  1   force =    -0.04477530   -0.01687314    0.04008196
     atom   15 type  1   force =     0.04410539    0.00161426    0.02316838
     atom   16 type  1   force =     0.01248422   -0.01942619   -0.00356293
     atom   17 type  1   force =     0.00402133    0.10072635    0.01646436
     atom   18 type  1   force =    -0.00152558    0.00663415   -0.01819444
     atom   19 type  1   force =     0.05043180   -0.02781223    0.00224809
     atom   20 type  1   force =    -0.00137177    0.01175016    0.11030177
     atom   21 type  1   force =    -0.01033382   -0.10735941   -0.01458159
     atom   22 type  1   force =     0.01337835    0.01537234   -0.00339876
     atom   23 type  1   force =    -0.01764104   -0.03818269    0.01644723
     atom   24 type  1   force =    -0.03957815   -0.02361073    0.01679336
     atom   25 type  1   force =     0.12058293    0.11314842   -0.04580860
     atom   26 type  1   force =    -0.00378869    0.01043671   -0.00805110
     atom   27 type  1   force =    -0.00264935    0.01461059   -0.01951092
     atom   28 type  1   force =     0.00971372    0.03500129    0.04313607
     atom   29 type  1   force =     0.05274214    0.09646057   -0.08451919
     atom   30 type  1   force =    -0.01833133    0.02200356    0.01669179
     atom   31 type  1   force =    -0.00640967    0.06753821    0.00013430
     atom   32 type  1   force =     0.00405957    0.03083949    0.00294027
     atom   33 type  1   force =     0.00196753   -0.04744539    0.02210142
     atom   34 type  1   force =     0.01698274    0.02808414    0.00457120
     atom   35 type  1   force =    -0.02892039   -0.03633397    0.04264001
     atom   36 type  1   force =    -0.03062169   -0.01633520    0.01621129
     atom   37 type  1   force =    -0.04853249   -0.00066252    0.00938020
     atom   38 type  1   force =    -0.03192724   -0.00980531    0.00421260
     atom   39 type  1   force =     0.04887487   -0.00480763   -0.01858718
     atom   40 type  1   force =     0.03550821   -0.02456286    0.01031937
     atom   41 type  1   force =    -0.01503469   -0.03105422    0.00316662
     atom   42 type  1   force =    -0.08382475    0.03400734    0.00599455
     atom   43 type  1   force =     0.01480107   -0.06574440    0.01331754
     atom   44 type  1   force =     0.04787052    0.02172343   -0.03406075
     atom   45 type  1   force =     0.02719299   -0.05416022    0.00950339
     atom   46 type  1   force =    -0.03946427   -0.14478208    0.04438198
     atom   47 type  1   force =    -0.05861969   -0.03148100   -0.04064137
     atom   48 type  1   force =    -0.04267074   -0.10546388    0.07426522
     atom   49 type  1   force =     0.04520496   -0.04642767   -0.03451821
     atom   50 type  1   force =    -0.04041526    0.06613413    0.04796031
     atom   51 type  1   force =    -0.03252267    0.01432715   -0.03942855
     atom   52 type  1   force =     0.01276582    0.00154776    0.00374075
     atom   53 type  1   force =    -0.01520409    0.08541903    0.05232435
     atom   54 type  1   force =    -0.08491598    0.02888249   -0.09386503
     atom   55 type  1   force =     0.00612443    0.08023993   -0.05815113
     atom   56 type  1   force =    -0.01229313   -0.02007083   -0.00655580
     atom   57 type  1   force =     0.00232723   -0.00791882   -0.03331420
     atom   58 type  1   force =     0.03204359   -0.01872983   -0.10129660
     atom   59 type  1   force =     0.00665594   -0.02629175   -0.05493622
     atom   60 type  1   force =    -0.10235441    0.02492900   -0.02603722
     atom   61 type  1   force =     0.07388774    0.01492271   -0.02521418
     atom   62 type  1   force =     0.06805892   -0.06129090   -0.14115758
     atom   63 type  1   force =    -0.05240844    0.01345055    0.02106473
     atom   64 type  1   force =     0.04768526   -0.06553963   -0.07116689

     Total force =     0.648840     Total SCF correction =     0.001597


     Computing stress (Cartesian axis) and pressure

          total   stress  (Ry/bohr**3)                   (kbar)     P=       -8.22
  -0.00001408  -0.00007371  -0.00012895           -2.07      -10.84      -18.97
  -0.00007371  -0.00012507  -0.00008573          -10.84      -18.40      -12.61
  -0.00012895  -0.00008573  -0.00002842          -18.97      -12.61       -4.18

 
     init_run     :      1.00s CPU      4.67s WALL (       1 calls)
     electrons    :      1.90s CPU      2.02s WALL (       1 calls)
     forces       :      0.04s CPU      0.05s WALL (       1 calls)
     stress       :      0.15s CPU      0.15s WALL (       1 calls)

     Called by init_run:
     wfcinit      :      0.58s CPU      4.08s WALL (       1 calls)
                                        4.08s GPU  (       1 calls)
     potinit      :      0.21s CPU      0.29s WALL (       1 calls)
     hinit0       :      0.19s CPU      0.22s WALL (       1 calls)

     Called by electrons:
     c_bands      :      1.35s CPU      1.39s WALL (      13 calls)
     sum_band     :      0.29s CPU      0.33s WALL (      13 calls)
     v_of_rho     :      0.14s CPU      0.23s WALL (      13 calls)
     mix_rho      :      0.11s CPU      0.13s WALL (      13 calls)

     Called by c_bands:
     init_us_2    :      0.05s CPU      0.05s WALL (      27 calls)
     init_us_2:gp :      0.04s CPU      0.05s WALL (      27 calls)
     regterg      :      1.23s CPU      1.27s WALL (      13 calls)

     Called by *egterg:
     rdiaghg      :      0.55s CPU      1.29s WALL (     145 calls)
                                        1.26s GPU  (     145 calls)
     h_psi        :      1.07s CPU      3.86s WALL (     147 calls)
                                        3.85s GPU  (     147 calls)
     g_psi        :      0.00s CPU      0.00s WALL (     133 calls)
                                        0.00s GPU  (     133 calls)

     Called by h_psi:
     h_psi:calbec :      0.53s CPU      3.24s WALL (     147 calls)
                                        3.24s GPU  (     147 calls)
     vloc_psi     :      0.44s CPU      0.51s WALL (     147 calls)
                                        0.51s GPU  (     147 calls)
     add_vuspsi   :      0.07s CPU      0.09s WALL (     147 calls)
                                        0.09s GPU  (     147 calls)

     General routines
     calbec       :      0.53s CPU      3.24s WALL (     152 calls)
     fft          :      0.28s CPU      0.39s WALL (     111 calls)
                                        0.11s GPU  (      71 calls)
     ffts         :      0.05s CPU      0.05s WALL (      13 calls)
     fftw         :      0.46s CPU      0.62s WALL (    1336 calls)
                                        0.56s GPU  (    1336 calls)
 
     Parallel routines
 
     PWSCF        :      3.14s CPU      6.98s WALL

 
   This run was terminated on:  15:26:12   8May2023            

=------------------------------------------------------------------------------=
   JOB DONE.
=------------------------------------------------------------------------------=
