An instance of this daemon is already running
An instance of this daemon is already running

     Program PWSCF v.7.1 starts on  8May2023 at 15:30: 9 

     This program is part of the open-source Quantum ESPRESSO suite
     for quantum simulation of materials; please cite
         "P. Giannozzi et al., J. Phys.:Condens. Matter 21 395502 (2009);
         "P. Giannozzi et al., J. Phys.:Condens. Matter 29 465901 (2017);
         "P. Giannozzi et al., J. Chem. Phys. 152 154105 (2020);
          URL http://www.quantum-espresso.org", 
     in publications or presentations arising from this work. More details at
     http://www.quantum-espresso.org/quote

     Parallel version (MPI & OpenMP), running on       4 processor cores
     Number of MPI processes:                 4
     Threads/MPI process:                     1

     MPI processes distributed on     1 nodes
     612640 MiB available memory on the printing compute node when the environment starts
 
     Reading input from pw-si-38.in
Warning: card &CELL ignored
Warning: card / ignored

     Current dimensions of program PWSCF are:
     Max number of different atomic species (ntypx) = 10
     Max number of k-points (npk) =  40000
     Max angular momentum in pseudopotentials (lmaxx) =  4

     IMPORTANT: XC functional enforced from input :
     Exchange-correlation= PBE
                           (   1   4   3   4   0   0   0)
     Any further DFT definition will be discarded
     Please, verify this is what you really want


     gamma-point specific algorithms are used
 
     K-points division:     npool     =       2
     R & G space division:  proc/nbgrp/npool/nimage =       2
     Subspace diagonalization in iterative solution of the eigenvalue problem:
     a serial algorithm will be used

     Message from routine divide_et_impera:
     suboptimal parallelization: some nodes have no k-points
 
     Parallelization info
     --------------------
     sticks:   dense  smooth     PW     G-vecs:    dense   smooth      PW
     Min        2019    2019    533                95469    95469   12996
     Max        2020    2020    536                95472    95472   12997
     Sum        4039    4039   1069               190941   190941   25993
 
     Using Slab Decomposition
 


     bravais-lattice index     =            0
     lattice parameter (alat)  =      20.9194  a.u.
     unit-cell volume          =    8602.5839 (a.u.)^3
     number of atoms/cell      =           64
     number of atomic types    =            1
     number of electrons       =       256.00
     number of Kohn-Sham states=          128
     kinetic-energy cutoff     =      30.0000  Ry
     charge density cutoff     =     120.0000  Ry
     scf convergence threshold =      1.0E-06
     mixing beta               =       0.5000
     number of iterations used =            8  plain     mixing
     Exchange-correlation= PBE
                           (   1   4   3   4   0   0   0)

     GPU acceleration is ACTIVE.
     GPU-aware MPI enabled

     Message from routine print_cuda_info:
     High GPU oversubscription detected. Are you sure this is what you want?

     celldm(1)=  20.919368  celldm(2)=   0.000000  celldm(3)=   0.000000
     celldm(4)=   0.000000  celldm(5)=   0.000000  celldm(6)=   0.000000

     crystal axes: (cart. coord. in units of alat)
               a(1) = (   1.000000   0.000000   0.000000 )  
               a(2) = (   0.000000   0.965500   0.000000 )  
               a(3) = (   0.000000   0.000000   0.973265 )  

     reciprocal axes: (cart. coord. in units 2 pi/alat)
               b(1) = (  1.000000  0.000000  0.000000 )  
               b(2) = (  0.000000  1.035733  0.000000 )  
               b(3) = (  0.000000  0.000000  1.027470 )  


     PseudoPot. # 1 for Si read from file:
     /home/ppiaggi/pseudos/Si_ONCV_PBE_sr.upf
     MD5 check sum: 8553c464762ac42b85b1eed164b4d029
     Pseudo is Norm-conserving, Zval =  4.0
     Generated using ONCVPSP code by D. R. Hamann
     Using radial grid of 1510 points,  4 beta functions with: 
                l(1) =   0
                l(2) =   0
                l(3) =   1
                l(4) =   1

     atomic species   valence    mass     pseudopotential
        Si             4.00    28.08500     Si( 1.00)

     No symmetry found



   Cartesian axes

     site n.     atom                  positions (alat units)
         1           Si  tau(   1) = (  -0.0030102   0.0035134  -0.0000013  )
         2           Si  tau(   2) = (  -0.0081674   0.2310934   0.2422246  )
         3           Si  tau(   3) = (   0.2498608   0.0031126   0.2374196  )
         4           Si  tau(   4) = (   0.2624083   0.2339156  -0.0038541  )
         5           Si  tau(   5) = (   0.1358920   0.1237178   0.1280095  )
         6           Si  tau(   6) = (   0.5024978  -0.0049599  -0.0082290  )
         7           Si  tau(   7) = (   0.5022740   0.2367472   0.2430027  )
         8           Si  tau(   8) = (   0.6396528   0.1254225   0.1177674  )
         9           Si  tau(   9) = (   0.7638828   0.0036932   0.2400614  )
        10           Si  tau(  10) = (   0.7610904   0.2311449   0.0041489  )
        11           Si  tau(  11) = (  -0.0024102   0.4711169   0.0040057  )
        12           Si  tau(  12) = (   0.2480937   0.4851823   0.2433293  )
        13           Si  tau(  13) = (   0.1245243   0.6000196   0.1174962  )
        14           Si  tau(  14) = (   0.3806240   0.3543458   0.1236444  )
        15           Si  tau(  15) = (   0.5123771   0.4760108  -0.0080072  )
        16           Si  tau(  16) = (   0.6321619   0.5950065   0.1260527  )
        17           Si  tau(  17) = (   0.8825212   0.3561211   0.1285715  )
        18           Si  tau(  18) = (   0.7530227   0.4777845   0.2412399  )
        19           Si  tau(  19) = (  -0.0080098   0.7128533   0.2391102  )
        20           Si  tau(  20) = (   0.2457632   0.7104343   0.0088307  )
        21           Si  tau(  21) = (   0.3876269   0.8367445   0.1240834  )
        22           Si  tau(  22) = (   0.5019103   0.7188076   0.2452486  )
        23           Si  tau(  23) = (   0.7524651   0.7210976   0.0006900  )
        24           Si  tau(  24) = (   0.8833610   0.8290938   0.1259837  )
        25           Si  tau(  25) = (   0.0084860   0.0078732   0.4952019  )
        26           Si  tau(  26) = (   0.2477852   0.2319892   0.4990303  )
        27           Si  tau(  27) = (   0.1349180   0.1219099   0.6208012  )
        28           Si  tau(  28) = (   0.3851216   0.1109355   0.3673803  )
        29           Si  tau(  29) = (   0.5028037   0.0014669   0.4982311  )
        30           Si  tau(  30) = (   0.6303918   0.1117612   0.6054419  )
        31           Si  tau(  31) = (   0.8900243   0.1276960   0.3659488  )
        32           Si  tau(  32) = (   0.7572659   0.2402444   0.4868692  )
        33           Si  tau(  33) = (   0.1204343   0.3507448   0.3735916  )
        34           Si  tau(  34) = (  -0.0017143   0.4711804   0.4944971  )
        35           Si  tau(  35) = (   0.1318537   0.5921384   0.6172492  )
        36           Si  tau(  36) = (   0.6311728   0.3640723   0.3757852  )
        37           Si  tau(  37) = (   0.3850626   0.5898479   0.3593988  )
        38           Si  tau(  38) = (   0.3861891   0.3492618   0.6114603  )
        39           Si  tau(  39) = (   0.5076569   0.4792757   0.4826980  )
        40           Si  tau(  40) = (   0.6405853   0.5957385   0.6151287  )
        41           Si  tau(  41) = (   0.8804847   0.5959870   0.3718612  )
        42           Si  tau(  42) = (   0.8939740   0.3567624   0.6050032  )
        43           Si  tau(  43) = (   0.1260564   0.8310998   0.3600587  )
        44           Si  tau(  44) = (   0.2467891   0.7166241   0.4984276  )
        45           Si  tau(  45) = (   0.6431025   0.8290020   0.3764748  )
        46           Si  tau(  46) = (   0.3833039   0.8430548   0.6150546  )
        47           Si  tau(  47) = (   0.7627961   0.7089838   0.4849174  )
        48           Si  tau(  48) = (   0.8906828   0.8415863   0.6194375  )
        49           Si  tau(  49) = (  -0.0015114   0.2302585   0.7388630  )
        50           Si  tau(  50) = (   0.2618975   0.0008243   0.7391384  )
        51           Si  tau(  51) = (   0.3726760   0.1154166   0.8615391  )
        52           Si  tau(  52) = (   0.5031330   0.2448882   0.7363008  )
        53           Si  tau(  53) = (   0.7691359   0.0000881   0.7344031  )
        54           Si  tau(  54) = (   0.8945157   0.1121043   0.8626707  )
        55           Si  tau(  55) = (   0.1183256   0.3561185   0.8596363  )
        56           Si  tau(  56) = (   0.2500953   0.4746997   0.7397610  )
        57           Si  tau(  57) = (   0.6432394   0.3495462   0.8521651  )
        58           Si  tau(  58) = (   0.3890020   0.5999293   0.8564121  )
        59           Si  tau(  59) = (   0.7646981   0.4761822   0.7334202  )
        60           Si  tau(  60) = (   0.8915218   0.5898218   0.8585901  )
        61           Si  tau(  61) = (  -0.0044492   0.7087203   0.7424429  )
        62           Si  tau(  62) = (   0.1351374   0.8316072   0.8494112  )
        63           Si  tau(  63) = (   0.5060862   0.7161041   0.7327088  )
        64           Si  tau(  64) = (   0.6264164   0.8419956   0.8571892  )

     number of k points=     1
                       cart. coord. in units 2pi/alat
        k(    1) = (   0.0000000   0.0000000   0.0000000), wk =   2.0000000

     Dense  grid:    95471 G-vectors     FFT dimensions: (  75,  72,  72)

     Estimated max dynamical RAM per process >     140.34 MB

     Estimated total dynamical RAM >     538.04 MB

     Initial potential from superposition of free atoms

     starting charge     255.9608, renormalised to     256.0000
     Starting wfcs are  256 randomized atomic wfcs

     total cpu time spent up to now is        5.1 secs

     Self-consistent Calculation

     iteration #  1     ecut=    30.00 Ry     beta= 0.50
     Davidson diagonalization with overlap
     ethr =  1.00E-02,  avg # of iterations =  2.0

     Threshold (ethr) on eigenvalues was too large:
     Diagonalizing with lowered threshold

     Davidson diagonalization with overlap
     ethr =  6.99E-04,  avg # of iterations =  2.0

     total cpu time spent up to now is        5.3 secs

     total energy              =    -503.38693781 Ry
     estimated scf accuracy    <       2.00477949 Ry

     iteration #  2     ecut=    30.00 Ry     beta= 0.50
     Davidson diagonalization with overlap
     ethr =  7.83E-04,  avg # of iterations =  1.0

     total cpu time spent up to now is        5.4 secs

     total energy              =    -503.36897116 Ry
     estimated scf accuracy    <       0.37624750 Ry

     iteration #  3     ecut=    30.00 Ry     beta= 0.50
     Davidson diagonalization with overlap
     ethr =  1.47E-04,  avg # of iterations =  2.0

     total cpu time spent up to now is        5.5 secs

     total energy              =    -503.39932067 Ry
     estimated scf accuracy    <       0.00777810 Ry

     iteration #  4     ecut=    30.00 Ry     beta= 0.50
     Davidson diagonalization with overlap
     c_bands:  1 eigenvalues not converged
     ethr =  3.04E-06,  avg # of iterations = 20.0

     total cpu time spent up to now is        5.7 secs

     total energy              =    -503.42068306 Ry
     estimated scf accuracy    <       0.02538085 Ry

     iteration #  5     ecut=    30.00 Ry     beta= 0.50
     Davidson diagonalization with overlap
     ethr =  3.04E-06,  avg # of iterations =  2.0

     total cpu time spent up to now is        5.8 secs

     total energy              =    -503.41670022 Ry
     estimated scf accuracy    <       0.01732661 Ry

     iteration #  6     ecut=    30.00 Ry     beta= 0.50
     Davidson diagonalization with overlap
     ethr =  3.04E-06,  avg # of iterations = 16.0

     total cpu time spent up to now is        6.0 secs

     total energy              =    -503.41582182 Ry
     estimated scf accuracy    <       0.00548799 Ry

     iteration #  7     ecut=    30.00 Ry     beta= 0.50
     Davidson diagonalization with overlap
     c_bands:  1 eigenvalues not converged
     ethr =  2.14E-06,  avg # of iterations = 20.0

     total cpu time spent up to now is        6.1 secs

     total energy              =    -503.41679784 Ry
     estimated scf accuracy    <       0.00101071 Ry

     iteration #  8     ecut=    30.00 Ry     beta= 0.50
     Davidson diagonalization with overlap
     c_bands:  1 eigenvalues not converged
     ethr =  3.95E-07,  avg # of iterations = 20.0

     total cpu time spent up to now is        6.3 secs

     total energy              =    -503.41691949 Ry
     estimated scf accuracy    <       0.00015874 Ry

     iteration #  9     ecut=    30.00 Ry     beta= 0.50
     Davidson diagonalization with overlap
     c_bands:  1 eigenvalues not converged
     ethr =  6.20E-08,  avg # of iterations = 20.0

     total cpu time spent up to now is        6.5 secs

     total energy              =    -503.41695194 Ry
     estimated scf accuracy    <       0.00020493 Ry

     iteration # 10     ecut=    30.00 Ry     beta= 0.50
     Davidson diagonalization with overlap
     ethr =  6.20E-08,  avg # of iterations = 14.0

     total cpu time spent up to now is        6.7 secs

     total energy              =    -503.41695321 Ry
     estimated scf accuracy    <       0.00005902 Ry

     iteration # 11     ecut=    30.00 Ry     beta= 0.50
     Davidson diagonalization with overlap
     c_bands:  1 eigenvalues not converged
     ethr =  2.31E-08,  avg # of iterations = 20.0

     total cpu time spent up to now is        6.9 secs

     total energy              =    -503.41697172 Ry
     estimated scf accuracy    <       0.00005624 Ry

     iteration # 12     ecut=    30.00 Ry     beta= 0.50
     Davidson diagonalization with overlap
     ethr =  2.20E-08,  avg # of iterations = 13.0

     total cpu time spent up to now is        7.0 secs

     total energy              =    -503.41696912 Ry
     estimated scf accuracy    <       0.00002507 Ry

     iteration # 13     ecut=    30.00 Ry     beta= 0.50
     Davidson diagonalization with overlap
     c_bands:  1 eigenvalues not converged
     ethr =  9.79E-09,  avg # of iterations = 20.0

     total cpu time spent up to now is        7.1 secs

     End of self-consistent calculation

          k = 0.0000 0.0000 0.0000 ( 11941 PWs)   bands (ev):

    -5.8102  -4.8770  -4.8291  -4.7605  -4.6985  -4.5970  -4.5200  -4.0380
    -3.9968  -3.9054  -3.7995  -3.7733  -3.7189  -3.6889  -3.6816  -3.6147
    -3.5158  -3.4749  -3.4367  -3.3767  -3.3455  -3.2696  -3.1424  -1.9606
    -1.8303  -1.7723  -1.6982  -1.6596  -1.6015  -1.5612  -1.4976  -1.4636
    -1.4409  -1.4061  -1.3438  -1.2772  -1.2538  -1.1913  -1.1536  -1.1038
    -1.0168  -0.9091  -0.7065  -0.5891  -0.4575   0.4865   0.5273   0.5979
     0.7247   0.7455   0.7800   0.8052   0.8459   0.8881   0.9728   0.9961
     1.0509   2.1127   2.1352   2.1456   2.1631   2.2203   2.2543   2.2959
     2.3170   2.3567   2.4007   2.4052   2.4515   2.4596   2.4956   2.5062
     2.5309   2.5793   2.5848   2.6030   2.6290   2.6459   2.6937   2.7107
     2.7483   2.7668   2.8156   2.8600   2.9056   2.9416   3.0286   3.2981
     3.3547   3.3681   3.4107   3.5021   3.6656   4.1122   4.1647   4.2337
     4.2759   4.2866   4.3913   4.4122   4.4487   4.4894   4.5205   4.5419
     4.6235   4.7000   4.7173   4.7567   4.7648   4.8057   4.8513   4.8861
     4.9761   4.9915   5.0282   5.0781   5.1077   5.2017   5.2175   5.2709
     5.2946   5.3811   5.4583   5.5154   5.5886   6.0880   6.3525   6.6564

     highest occupied level (ev):     6.6564

!    total energy              =    -503.41697266 Ry
     estimated scf accuracy    <       0.00000075 Ry

     The total energy is the sum of the following terms:
     one-electron contribution =     149.98757358 Ry
     hartree contribution      =      37.11713851 Ry
     xc contribution           =    -154.48969283 Ry
     ewald contribution        =    -536.03199192 Ry

     convergence has been achieved in  13 iterations

     Forces acting on atoms (cartesian axes, Ry/au):

     atom    1 type  1   force =     0.12981416   -0.12848358    0.10450448
     atom    2 type  1   force =     0.11621088    0.05532349   -0.02772959
     atom    3 type  1   force =     0.04792766   -0.07531715    0.05412200
     atom    4 type  1   force =    -0.07670754    0.06389915    0.06588359
     atom    5 type  1   force =    -0.04931309    0.01152229   -0.05580053
     atom    6 type  1   force =     0.00633091    0.02112270    0.06481232
     atom    7 type  1   force =     0.03403392    0.00385224    0.02846092
     atom    8 type  1   force =    -0.07542452   -0.06609814    0.04008389
     atom    9 type  1   force =    -0.01272166   -0.04050687    0.03679908
     atom   10 type  1   force =     0.04500176    0.04146233   -0.03179084
     atom   11 type  1   force =     0.03978637    0.00827036    0.03382629
     atom   12 type  1   force =    -0.00433082   -0.05954253    0.00581208
     atom   13 type  1   force =    -0.04467373   -0.04662685    0.04995737
     atom   14 type  1   force =    -0.00094700    0.03661370   -0.01937929
     atom   15 type  1   force =    -0.00291811   -0.01955819    0.04505586
     atom   16 type  1   force =    -0.02470218    0.02954771   -0.03335160
     atom   17 type  1   force =    -0.04284130   -0.00160024   -0.01383816
     atom   18 type  1   force =     0.01345509   -0.00711536    0.04787354
     atom   19 type  1   force =     0.07247496   -0.02814283    0.05677383
     atom   20 type  1   force =     0.08660357    0.05443308   -0.04974616
     atom   21 type  1   force =    -0.04728876    0.02649821   -0.01916526
     atom   22 type  1   force =     0.04728536   -0.00999237    0.02444644
     atom   23 type  1   force =     0.01097841   -0.03240753    0.00653269
     atom   24 type  1   force =    -0.04773805    0.09261113   -0.05630769
     atom   25 type  1   force =     0.01200546   -0.04513896   -0.02300380
     atom   26 type  1   force =     0.05869424    0.02783982   -0.06018907
     atom   27 type  1   force =    -0.02801981   -0.04364011    0.02821447
     atom   28 type  1   force =    -0.04056645    0.02232849   -0.00644873
     atom   29 type  1   force =     0.01049996   -0.06561756   -0.05570933
     atom   30 type  1   force =     0.04157022    0.05552503    0.06283589
     atom   31 type  1   force =    -0.08122457   -0.08552406    0.06137389
     atom   32 type  1   force =    -0.00294056   -0.00555416    0.01387744
     atom   33 type  1   force =     0.02987557    0.01017802   -0.03576977
     atom   34 type  1   force =     0.08446293    0.08694211   -0.06189549
     atom   35 type  1   force =    -0.04024767    0.00177749    0.00582947
     atom   36 type  1   force =     0.01676382   -0.04781325   -0.07257152
     atom   37 type  1   force =    -0.04342101    0.04965825    0.03648851
     atom   38 type  1   force =    -0.03532557    0.05541813   -0.02028769
     atom   39 type  1   force =    -0.02236053    0.01256840    0.07095773
     atom   40 type  1   force =    -0.03379935    0.00038898   -0.01639877
     atom   41 type  1   force =     0.01674280   -0.05028309   -0.05018954
     atom   42 type  1   force =    -0.09830800   -0.07660934    0.09243250
     atom   43 type  1   force =     0.00030676    0.04268854    0.01968099
     atom   44 type  1   force =     0.04799524    0.00770271   -0.04874236
     atom   45 type  1   force =    -0.05425002    0.07660214   -0.05665174
     atom   46 type  1   force =    -0.01731107   -0.01917170    0.00176712
     atom   47 type  1   force =     0.00217489    0.04387280    0.08751712
     atom   48 type  1   force =    -0.01669633   -0.01658587   -0.03901209
     atom   49 type  1   force =     0.04083810    0.04472915   -0.03269010
     atom   50 type  1   force =    -0.03758688   -0.05001131   -0.03026174
     atom   51 type  1   force =     0.08760484    0.00493517   -0.05426110
     atom   52 type  1   force =     0.02992508   -0.07612124    0.01214928
     atom   53 type  1   force =    -0.06277419   -0.01480808    0.00567434
     atom   54 type  1   force =    -0.12743525    0.06285653   -0.07011036
     atom   55 type  1   force =     0.05024555   -0.02719722   -0.02058323
     atom   56 type  1   force =     0.03668997   -0.00967685   -0.00387998
     atom   57 type  1   force =    -0.01322975    0.02308842   -0.00474922
     atom   58 type  1   force =    -0.05571142   -0.01574034   -0.00034783
     atom   59 type  1   force =     0.00840464   -0.02034970   -0.00876365
     atom   60 type  1   force =    -0.10522240    0.01672747    0.01699666
     atom   61 type  1   force =     0.08225697    0.04328527   -0.05566963
     atom   62 type  1   force =    -0.02496496    0.03446900    0.02167365
     atom   63 type  1   force =     0.01909629    0.02026824   -0.01279425
     atom   64 type  1   force =     0.04494616   -0.00377209   -0.05432336

     Total force =     0.665902     Total SCF correction =     0.001486


     Computing stress (Cartesian axis) and pressure

          total   stress  (Ry/bohr**3)                   (kbar)     P=       45.71
   0.00022879  -0.00007844   0.00006451           33.66      -11.54        9.49
  -0.00007844   0.00034704  -0.00020769          -11.54       51.05      -30.55
   0.00006451  -0.00020769   0.00035633            9.49      -30.55       52.42

 
     init_run     :      1.30s CPU      5.00s WALL (       1 calls)
     electrons    :      1.95s CPU      2.08s WALL (       1 calls)
     forces       :      0.04s CPU      0.05s WALL (       1 calls)
     stress       :      0.14s CPU      0.14s WALL (       1 calls)

     Called by init_run:
     wfcinit      :      0.58s CPU      4.09s WALL (       1 calls)
                                        4.09s GPU  (       1 calls)
     potinit      :      0.20s CPU      0.29s WALL (       1 calls)
     hinit0       :      0.50s CPU      0.53s WALL (       1 calls)

     Called by electrons:
     c_bands      :      1.40s CPU      1.46s WALL (      14 calls)
     sum_band     :      0.27s CPU      0.31s WALL (      14 calls)
     v_of_rho     :      0.14s CPU      0.24s WALL (      14 calls)
     mix_rho      :      0.12s CPU      0.13s WALL (      14 calls)

     Called by c_bands:
     init_us_2    :      0.05s CPU      0.05s WALL (      29 calls)
     init_us_2:gp :      0.05s CPU      0.05s WALL (      29 calls)
     regterg      :      1.28s CPU      1.33s WALL (      14 calls)

     Called by *egterg:
     rdiaghg      :      0.64s CPU      1.37s WALL (     185 calls)
                                        1.34s GPU  (     185 calls)
     h_psi        :      1.01s CPU      3.82s WALL (     187 calls)
                                        3.82s GPU  (     187 calls)
     g_psi        :      0.00s CPU      0.00s WALL (     172 calls)
                                        0.00s GPU  (     172 calls)

     Called by h_psi:
     h_psi:calbec :      0.54s CPU      3.27s WALL (     187 calls)
                                        3.27s GPU  (     187 calls)
     vloc_psi     :      0.35s CPU      0.42s WALL (     187 calls)
                                        0.42s GPU  (     187 calls)
     add_vuspsi   :      0.10s CPU      0.12s WALL (     187 calls)
                                        0.11s GPU  (     187 calls)

     General routines
     calbec       :      0.54s CPU      3.27s WALL (     192 calls)
     fft          :      0.59s CPU      0.72s WALL (     119 calls)
                                        0.13s GPU  (      76 calls)
     ffts         :      0.04s CPU      0.04s WALL (      14 calls)
     fftw         :      0.38s CPU      0.53s WALL (    1484 calls)
                                        0.47s GPU  (    1484 calls)
 
     Parallel routines
 
     PWSCF        :      3.47s CPU      7.35s WALL

 
   This run was terminated on:  15:30:17   8May2023            

=------------------------------------------------------------------------------=
   JOB DONE.
=------------------------------------------------------------------------------=
