An instance of this daemon is already running
An instance of this daemon is already running

     Program PWSCF v.7.1 starts on  8May2023 at 15:30:19 

     This program is part of the open-source Quantum ESPRESSO suite
     for quantum simulation of materials; please cite
         "P. Giannozzi et al., J. Phys.:Condens. Matter 21 395502 (2009);
         "P. Giannozzi et al., J. Phys.:Condens. Matter 29 465901 (2017);
         "P. Giannozzi et al., J. Chem. Phys. 152 154105 (2020);
          URL http://www.quantum-espresso.org", 
     in publications or presentations arising from this work. More details at
     http://www.quantum-espresso.org/quote

     Parallel version (MPI & OpenMP), running on       4 processor cores
     Number of MPI processes:                 4
     Threads/MPI process:                     1

     MPI processes distributed on     1 nodes
     618195 MiB available memory on the printing compute node when the environment starts
 
     Reading input from pw-si-39.in
Warning: card &CELL ignored
Warning: card / ignored

     Current dimensions of program PWSCF are:
     Max number of different atomic species (ntypx) = 10
     Max number of k-points (npk) =  40000
     Max angular momentum in pseudopotentials (lmaxx) =  4

     IMPORTANT: XC functional enforced from input :
     Exchange-correlation= PBE
                           (   1   4   3   4   0   0   0)
     Any further DFT definition will be discarded
     Please, verify this is what you really want


     gamma-point specific algorithms are used
 
     K-points division:     npool     =       2
     R & G space division:  proc/nbgrp/npool/nimage =       2
     Subspace diagonalization in iterative solution of the eigenvalue problem:
     a serial algorithm will be used

     Message from routine divide_et_impera:
     suboptimal parallelization: some nodes have no k-points
 
     Parallelization info
     --------------------
     sticks:   dense  smooth     PW     G-vecs:    dense   smooth      PW
     Min        2061    2061    545                97539    97539   13237
     Max        2064    2064    546                97540    97540   13238
     Sum        4125    4125   1091               195079   195079   26475
 
     Using Slab Decomposition
 


     bravais-lattice index     =            0
     lattice parameter (alat)  =      20.2358  a.u.
     unit-cell volume          =    8784.6562 (a.u.)^3
     number of atoms/cell      =           64
     number of atomic types    =            1
     number of electrons       =       256.00
     number of Kohn-Sham states=          128
     kinetic-energy cutoff     =      30.0000  Ry
     charge density cutoff     =     120.0000  Ry
     scf convergence threshold =      1.0E-06
     mixing beta               =       0.5000
     number of iterations used =            8  plain     mixing
     Exchange-correlation= PBE
                           (   1   4   3   4   0   0   0)

     GPU acceleration is ACTIVE.
     GPU-aware MPI enabled

     Message from routine print_cuda_info:
     High GPU oversubscription detected. Are you sure this is what you want?

     celldm(1)=  20.235787  celldm(2)=   0.000000  celldm(3)=   0.000000
     celldm(4)=   0.000000  celldm(5)=   0.000000  celldm(6)=   0.000000

     crystal axes: (cart. coord. in units of alat)
               a(1) = (   1.000000   0.000000   0.000000 )  
               a(2) = (   0.000000   1.052880   0.000000 )  
               a(3) = (   0.000000   0.000000   1.006898 )  

     reciprocal axes: (cart. coord. in units 2 pi/alat)
               b(1) = (  1.000000  0.000000  0.000000 )  
               b(2) = (  0.000000  0.949776  0.000000 )  
               b(3) = (  0.000000  0.000000  0.993149 )  


     PseudoPot. # 1 for Si read from file:
     /home/ppiaggi/pseudos/Si_ONCV_PBE_sr.upf
     MD5 check sum: 8553c464762ac42b85b1eed164b4d029
     Pseudo is Norm-conserving, Zval =  4.0
     Generated using ONCVPSP code by D. R. Hamann
     Using radial grid of 1510 points,  4 beta functions with: 
                l(1) =   0
                l(2) =   0
                l(3) =   1
                l(4) =   1

     atomic species   valence    mass     pseudopotential
        Si             4.00    28.08500     Si( 1.00)

     No symmetry found



   Cartesian axes

     site n.     atom                  positions (alat units)
         1           Si  tau(   1) = (   0.0060961   0.0066148  -0.0076020  )
         2           Si  tau(   2) = (   0.0060549   0.2752264   0.2533313  )
         3           Si  tau(   3) = (   0.2500030   0.0078700   0.2579974  )
         4           Si  tau(   4) = (   0.2528176   0.2712128  -0.0040227  )
         5           Si  tau(   5) = (   0.1200551   0.1362086   0.1213244  )
         6           Si  tau(   6) = (   0.4976505   0.0077640  -0.0029308  )
         7           Si  tau(   7) = (   0.5045047   0.2771849   0.2480926  )
         8           Si  tau(   8) = (   0.6169758   0.1281515   0.1373889  )
         9           Si  tau(   9) = (   0.7500538  -0.0030309   0.2651244  )
        10           Si  tau(  10) = (   0.7440812   0.2632103  -0.0071128  )
        11           Si  tau(  11) = (   0.0042453   0.5366707   0.0044739  )
        12           Si  tau(  12) = (   0.2475155   0.5443177   0.2603103  )
        13           Si  tau(  13) = (   0.1297019   0.6804882   0.1207120  )
        14           Si  tau(  14) = (   0.3677070   0.4028913   0.1318608  )
        15           Si  tau(  15) = (   0.4982121   0.5475470  -0.0043584  )
        16           Si  tau(  16) = (   0.6269295   0.6674049   0.1226994  )
        17           Si  tau(  17) = (   0.8623956   0.3975103   0.1308464  )
        18           Si  tau(  18) = (   0.7478834   0.5390645   0.2608801  )
        19           Si  tau(  19) = (   0.0032446   0.8027277   0.2622571  )
        20           Si  tau(  20) = (   0.2513672   0.8145153  -0.0012933  )
        21           Si  tau(  21) = (   0.3761471   0.9376760   0.1308019  )
        22           Si  tau(  22) = (   0.4987281   0.8067744   0.2589262  )
        23           Si  tau(  23) = (   0.7409302   0.8065520  -0.0051190  )
        24           Si  tau(  24) = (   0.8646387   0.9508174   0.1294979  )
        25           Si  tau(  25) = (   0.0089608  -0.0073434   0.5084434  )
        26           Si  tau(  26) = (   0.2496388   0.2737816   0.5212581  )
        27           Si  tau(  27) = (   0.1263825   0.1299465   0.6436694  )
        28           Si  tau(  28) = (   0.3736348   0.1331741   0.3877622  )
        29           Si  tau(  29) = (   0.5009477   0.0064650   0.5224986  )
        30           Si  tau(  30) = (   0.6111493   0.1416596   0.6353982  )
        31           Si  tau(  31) = (   0.8716975   0.1293404   0.3869497  )
        32           Si  tau(  32) = (   0.7358925   0.2724838   0.5215573  )
        33           Si  tau(  33) = (   0.1324653   0.4093140   0.3862557  )
        34           Si  tau(  34) = (   0.0004122   0.5335905   0.5143360  )
        35           Si  tau(  35) = (   0.1301470   0.6720115   0.6372833  )
        36           Si  tau(  36) = (   0.6184081   0.4150708   0.3823106  )
        37           Si  tau(  37) = (   0.3761593   0.6764873   0.3927253  )
        38           Si  tau(  38) = (   0.3803460   0.4023699   0.6336408  )
        39           Si  tau(  39) = (   0.4929904   0.5444736   0.5103107  )
        40           Si  tau(  40) = (   0.6163588   0.6751130   0.6351991  )
        41           Si  tau(  41) = (   0.8689100   0.6775577   0.3757813  )
        42           Si  tau(  42) = (   0.8632838   0.4005334   0.6363101  )
        43           Si  tau(  43) = (   0.1287965   0.9496963   0.3767178  )
        44           Si  tau(  44) = (   0.2424505   0.8204723   0.5160726  )
        45           Si  tau(  45) = (   0.6198705   0.9521182   0.3928592  )
        46           Si  tau(  46) = (   0.3695759   0.9382643   0.6335048  )
        47           Si  tau(  47) = (   0.7399790   0.8138432   0.5147948  )
        48           Si  tau(  48) = (   0.8645766   0.9500106   0.6362357  )
        49           Si  tau(  49) = (   0.0015274   0.2756271   0.7689852  )
        50           Si  tau(  50) = (   0.2559176   0.0037289   0.7667962  )
        51           Si  tau(  51) = (   0.3766470   0.1368001   0.9012108  )
        52           Si  tau(  52) = (   0.4944203   0.2644842   0.7774598  )
        53           Si  tau(  53) = (   0.7464057   0.0041520   0.7617866  )
        54           Si  tau(  54) = (   0.8762329   0.1350168   0.8922828  )
        55           Si  tau(  55) = (   0.1264247   0.4154185   0.9022162  )
        56           Si  tau(  56) = (   0.2549237   0.5428508   0.7740670  )
        57           Si  tau(  57) = (   0.6259068   0.4001257   0.8908599  )
        58           Si  tau(  58) = (   0.3775369   0.6788286   0.8895926  )
        59           Si  tau(  59) = (   0.7518377   0.5325622   0.7698874  )
        60           Si  tau(  60) = (   0.8598222   0.6699472   0.9027036  )
        61           Si  tau(  61) = (   0.0063369   0.8125044   0.7764285  )
        62           Si  tau(  62) = (   0.1309269   0.9385093   0.9056591  )
        63           Si  tau(  63) = (   0.4902583   0.8165030   0.7682718  )
        64           Si  tau(  64) = (   0.6220774   0.9387495   0.8974633  )

     number of k points=     1
                       cart. coord. in units 2pi/alat
        k(    1) = (   0.0000000   0.0000000   0.0000000), wk =   2.0000000

     Dense  grid:    97540 G-vectors     FFT dimensions: (  72,  75,  72)

     Estimated max dynamical RAM per process >     143.00 MB

     Estimated total dynamical RAM >     548.19 MB

     Initial potential from superposition of free atoms

     starting charge     255.9608, renormalised to     256.0000
     Starting wfcs are  256 randomized atomic wfcs

     total cpu time spent up to now is        5.0 secs

     Self-consistent Calculation

     iteration #  1     ecut=    30.00 Ry     beta= 0.50
     Davidson diagonalization with overlap
     ethr =  1.00E-02,  avg # of iterations =  2.0

     Threshold (ethr) on eigenvalues was too large:
     Diagonalizing with lowered threshold

     Davidson diagonalization with overlap
     ethr =  6.69E-04,  avg # of iterations =  2.0

     total cpu time spent up to now is        5.3 secs

     total energy              =    -503.35321960 Ry
     estimated scf accuracy    <       1.91636319 Ry

     iteration #  2     ecut=    30.00 Ry     beta= 0.50
     Davidson diagonalization with overlap
     ethr =  7.49E-04,  avg # of iterations =  1.0

     total cpu time spent up to now is        5.3 secs

     total energy              =    -503.33297237 Ry
     estimated scf accuracy    <       0.36586232 Ry

     iteration #  3     ecut=    30.00 Ry     beta= 0.50
     Davidson diagonalization with overlap
     ethr =  1.43E-04,  avg # of iterations =  6.0

     total cpu time spent up to now is        5.4 secs

     total energy              =    -503.36565299 Ry
     estimated scf accuracy    <       0.01004281 Ry

     iteration #  4     ecut=    30.00 Ry     beta= 0.50
     Davidson diagonalization with overlap
     c_bands:  1 eigenvalues not converged
     ethr =  3.92E-06,  avg # of iterations = 20.0

     total cpu time spent up to now is        5.6 secs

     total energy              =    -503.37456046 Ry
     estimated scf accuracy    <       0.01706967 Ry

     iteration #  5     ecut=    30.00 Ry     beta= 0.50
     Davidson diagonalization with overlap
     ethr =  3.92E-06,  avg # of iterations = 17.0

     total cpu time spent up to now is        5.8 secs

     total energy              =    -503.37419730 Ry
     estimated scf accuracy    <       0.00445558 Ry

     iteration #  6     ecut=    30.00 Ry     beta= 0.50
     Davidson diagonalization with overlap
     ethr =  1.74E-06,  avg # of iterations =  9.0

     total cpu time spent up to now is        5.9 secs

     total energy              =    -503.37438402 Ry
     estimated scf accuracy    <       0.00353426 Ry

     iteration #  7     ecut=    30.00 Ry     beta= 0.50
     Davidson diagonalization with overlap
     c_bands:  1 eigenvalues not converged
     ethr =  1.38E-06,  avg # of iterations = 20.0

     total cpu time spent up to now is        6.1 secs

     total energy              =    -503.37492700 Ry
     estimated scf accuracy    <       0.00027614 Ry

     iteration #  8     ecut=    30.00 Ry     beta= 0.50
     Davidson diagonalization with overlap
     ethr =  1.08E-07,  avg # of iterations = 13.0

     total cpu time spent up to now is        6.3 secs

     total energy              =    -503.37495491 Ry
     estimated scf accuracy    <       0.00014572 Ry

     iteration #  9     ecut=    30.00 Ry     beta= 0.50
     Davidson diagonalization with overlap
     ethr =  5.69E-08,  avg # of iterations = 20.0

     total cpu time spent up to now is        6.5 secs

     total energy              =    -503.37498081 Ry
     estimated scf accuracy    <       0.00001269 Ry

     iteration # 10     ecut=    30.00 Ry     beta= 0.50
     Davidson diagonalization with overlap
     c_bands:  1 eigenvalues not converged
     ethr =  4.96E-09,  avg # of iterations = 20.0

     total cpu time spent up to now is        6.7 secs

     total energy              =    -503.37498344 Ry
     estimated scf accuracy    <       0.00002216 Ry

     iteration # 11     ecut=    30.00 Ry     beta= 0.50
     Davidson diagonalization with overlap
     ethr =  4.96E-09,  avg # of iterations =  5.0

     total cpu time spent up to now is        6.8 secs

     total energy              =    -503.37498254 Ry
     estimated scf accuracy    <       0.00001056 Ry

     iteration # 12     ecut=    30.00 Ry     beta= 0.50
     Davidson diagonalization with overlap
     ethr =  4.12E-09,  avg # of iterations = 20.0

     total cpu time spent up to now is        6.9 secs

     End of self-consistent calculation

          k = 0.0000 0.0000 0.0000 ( 12197 PWs)   bands (ev):

    -5.9612  -5.0449  -4.9667  -4.8916  -4.8104  -4.7497  -4.6267  -4.3107
    -4.1356  -4.0358  -3.9521  -3.8896  -3.8595  -3.7843  -3.7398  -3.7276
    -3.6078  -3.5170  -3.4902  -3.4150  -3.3557  -3.3073  -3.1320  -2.1438
    -2.0912  -2.0165  -1.8685  -1.7774  -1.7107  -1.6497  -1.6119  -1.5872
    -1.4922  -1.4740  -1.4431  -1.4092  -1.3564  -1.3434  -1.2870  -1.2227
    -1.2019  -0.9719  -0.8996  -0.7819  -0.6168   0.3614   0.4241   0.4389
     0.5210   0.5300   0.5727   0.6216   0.6810   0.6824   0.7226   0.7837
     0.7987   1.8070   1.8653   1.9100   1.9838   2.0397   2.1164   2.1327
     2.1691   2.1778   2.2192   2.2513   2.2744   2.3139   2.3366   2.3631
     2.3954   2.4153   2.4928   2.4989   2.5526   2.5869   2.6237   2.6517
     2.6667   2.7308   2.7472   2.7801   2.8245   2.8716   2.8890   3.0769
     3.1595   3.1697   3.2246   3.3379   3.5136   3.8981   3.9511   3.9918
     4.0532   4.0871   4.1693   4.2471   4.2709   4.2771   4.3005   4.3592
     4.4193   4.4723   4.5476   4.6200   4.6373   4.6861   4.7140   4.7457
     4.7718   4.7913   4.8308   4.9059   4.9748   5.0083   5.1122   5.1887
     5.2379   5.3617   5.3708   5.4211   5.5299   5.9276   6.2623   6.3371

     highest occupied level (ev):     6.3371

!    total energy              =    -503.37498360 Ry
     estimated scf accuracy    <       0.00000031 Ry

     The total energy is the sum of the following terms:
     one-electron contribution =     143.13754150 Ry
     hartree contribution      =      38.71260292 Ry
     xc contribution           =    -153.79955837 Ry
     ewald contribution        =    -531.42556964 Ry

     convergence has been achieved in  12 iterations

     Forces acting on atoms (cartesian axes, Ry/au):

     atom    1 type  1   force =    -0.07997043    0.05320195    0.10002869
     atom    2 type  1   force =    -0.03337700   -0.01823507    0.02248880
     atom    3 type  1   force =     0.02688752    0.07037206   -0.05750163
     atom    4 type  1   force =    -0.03660621    0.01207405    0.07008669
     atom    5 type  1   force =     0.03291176    0.03078388    0.02609224
     atom    6 type  1   force =     0.00685639    0.00811905    0.10179999
     atom    7 type  1   force =    -0.02921190   -0.01513265    0.04743205
     atom    8 type  1   force =     0.04089236    0.02563498   -0.02799813
     atom    9 type  1   force =    -0.02933255    0.09693050    0.00085621
     atom   10 type  1   force =     0.00082804   -0.01679302    0.09198728
     atom   11 type  1   force =    -0.07503476    0.03612854    0.06909846
     atom   12 type  1   force =     0.01636410    0.01274525   -0.01173355
     atom   13 type  1   force =    -0.01622257   -0.02283470    0.03959576
     atom   14 type  1   force =     0.01295556    0.03809560   -0.02193379
     atom   15 type  1   force =     0.00975870   -0.06876237    0.04755910
     atom   16 type  1   force =    -0.01424494    0.02626220    0.03948405
     atom   17 type  1   force =     0.03481247    0.01667092   -0.00892961
     atom   18 type  1   force =    -0.00097537   -0.00055707   -0.03562110
     atom   19 type  1   force =    -0.00517602    0.03362476   -0.04762395
     atom   20 type  1   force =     0.05560968   -0.07324025    0.07334261
     atom   21 type  1   force =    -0.00630105   -0.01986950    0.00084863
     atom   22 type  1   force =     0.02808612   -0.00819364    0.00647327
     atom   23 type  1   force =     0.01613165    0.00161507    0.10088547
     atom   24 type  1   force =     0.06330237   -0.10194221   -0.05154708
     atom   25 type  1   force =    -0.06048728    0.10385220    0.04012183
     atom   26 type  1   force =    -0.00614452   -0.03522870   -0.03807698
     atom   27 type  1   force =    -0.01074650    0.03657532   -0.00614091
     atom   28 type  1   force =     0.01331558    0.05328126    0.00285639
     atom   29 type  1   force =    -0.04813125    0.04548772   -0.04113182
     atom   30 type  1   force =     0.03254343    0.00904878    0.07359242
     atom   31 type  1   force =     0.02941349    0.05372028    0.01676485
     atom   32 type  1   force =     0.01422161   -0.00499522   -0.07558166
     atom   33 type  1   force =    -0.02484479   -0.01802514    0.00428753
     atom   34 type  1   force =    -0.01846826    0.02170096   -0.02052715
     atom   35 type  1   force =    -0.02764852    0.01067694    0.02813579
     atom   36 type  1   force =     0.00777567   -0.03033048    0.01954161
     atom   37 type  1   force =    -0.04805018    0.03085509   -0.02665455
     atom   38 type  1   force =    -0.01906226    0.01958524    0.06269069
     atom   39 type  1   force =     0.03009226   -0.02525617    0.00733814
     atom   40 type  1   force =     0.01846620    0.00018607    0.04344576
     atom   41 type  1   force =     0.01222167   -0.00851333    0.06732953
     atom   42 type  1   force =     0.05163365    0.01613070    0.02108567
     atom   43 type  1   force =    -0.01300230   -0.12305462    0.00397435
     atom   44 type  1   force =    -0.00165462   -0.06998628   -0.05016586
     atom   45 type  1   force =    -0.00249796   -0.11046177   -0.02507355
     atom   46 type  1   force =     0.01529026   -0.01541869    0.03658056
     atom   47 type  1   force =     0.01995264   -0.03243643   -0.02181553
     atom   48 type  1   force =     0.07061675   -0.10401870   -0.01234390
     atom   49 type  1   force =    -0.00450651   -0.00418140   -0.00573609
     atom   50 type  1   force =    -0.02265221    0.04274360    0.03269121
     atom   51 type  1   force =    -0.03399841    0.00423944   -0.07607975
     atom   52 type  1   force =     0.01641696    0.03536032   -0.05109340
     atom   53 type  1   force =    -0.03956806    0.08750614    0.03942774
     atom   54 type  1   force =    -0.00411125    0.01660291   -0.06627789
     atom   55 type  1   force =     0.02719917   -0.05094979   -0.09041133
     atom   56 type  1   force =    -0.00542775   -0.01732387   -0.04562401
     atom   57 type  1   force =    -0.02789747    0.03128659   -0.02360388
     atom   58 type  1   force =    -0.02353897    0.01532363   -0.01779511
     atom   59 type  1   force =    -0.03547892    0.02703380   -0.02633226
     atom   60 type  1   force =     0.09083872   -0.01946557   -0.06802087
     atom   61 type  1   force =    -0.04680509   -0.03366232   -0.02714253
     atom   62 type  1   force =     0.01169966   -0.02234578   -0.13729180
     atom   63 type  1   force =     0.03887874   -0.03215330   -0.02631395
     atom   64 type  1   force =     0.00520270   -0.02008779   -0.09579976

     Total force =     0.614093     Total SCF correction =     0.000721


     Computing stress (Cartesian axis) and pressure

          total   stress  (Ry/bohr**3)                   (kbar)     P=       25.05
   0.00030195  -0.00005774  -0.00006651           44.42       -8.49       -9.78
  -0.00005774  -0.00001787   0.00006652           -8.49       -2.63        9.78
  -0.00006651   0.00006652   0.00022670           -9.78        9.78       33.35

 
     init_run     :      1.23s CPU      4.95s WALL (       1 calls)
     electrons    :      1.81s CPU      1.91s WALL (       1 calls)
     forces       :      0.04s CPU      0.05s WALL (       1 calls)
     stress       :      0.14s CPU      0.15s WALL (       1 calls)

     Called by init_run:
     wfcinit      :      0.58s CPU      4.10s WALL (       1 calls)
                                        4.10s GPU  (       1 calls)
     potinit      :      0.20s CPU      0.33s WALL (       1 calls)
     hinit0       :      0.41s CPU      0.44s WALL (       1 calls)

     Called by electrons:
     c_bands      :      1.30s CPU      1.35s WALL (      13 calls)
     sum_band     :      0.27s CPU      0.29s WALL (      13 calls)
     v_of_rho     :      0.13s CPU      0.26s WALL (      13 calls)
     mix_rho      :      0.11s CPU      0.12s WALL (      13 calls)

     Called by c_bands:
     init_us_2    :      0.05s CPU      0.05s WALL (      27 calls)
     init_us_2:gp :      0.05s CPU      0.05s WALL (      27 calls)
     regterg      :      1.19s CPU      1.23s WALL (      13 calls)

     Called by *egterg:
     rdiaghg      :      0.60s CPU      1.33s WALL (     167 calls)
                                        1.30s GPU  (     167 calls)
     h_psi        :      0.97s CPU      3.78s WALL (     169 calls)
                                        3.78s GPU  (     169 calls)
     g_psi        :      0.00s CPU      0.00s WALL (     155 calls)
                                        0.00s GPU  (     155 calls)

     Called by h_psi:
     h_psi:calbec :      0.54s CPU      3.28s WALL (     169 calls)
                                        3.27s GPU  (     169 calls)
     vloc_psi     :      0.33s CPU      0.39s WALL (     169 calls)
                                        0.39s GPU  (     169 calls)
     add_vuspsi   :      0.08s CPU      0.10s WALL (     169 calls)
                                        0.10s GPU  (     169 calls)

     General routines
     calbec       :      0.54s CPU      3.28s WALL (     174 calls)
     fft          :      0.49s CPU      0.62s WALL (     111 calls)
                                        0.13s GPU  (      71 calls)
     ffts         :      0.04s CPU      0.04s WALL (      13 calls)
     fftw         :      0.36s CPU      0.49s WALL (    1376 calls)
                                        0.44s GPU  (    1376 calls)
 
     Parallel routines
 
     PWSCF        :      3.26s CPU      7.15s WALL

 
   This run was terminated on:  15:30:26   8May2023            

=------------------------------------------------------------------------------=
   JOB DONE.
=------------------------------------------------------------------------------=
