An instance of this daemon is already running
An instance of this daemon is already running

     Program PWSCF v.7.1 starts on  8May2023 at 15:40:38 

     This program is part of the open-source Quantum ESPRESSO suite
     for quantum simulation of materials; please cite
         "P. Giannozzi et al., J. Phys.:Condens. Matter 21 395502 (2009);
         "P. Giannozzi et al., J. Phys.:Condens. Matter 29 465901 (2017);
         "P. Giannozzi et al., J. Chem. Phys. 152 154105 (2020);
          URL http://www.quantum-espresso.org", 
     in publications or presentations arising from this work. More details at
     http://www.quantum-espresso.org/quote

     Parallel version (MPI & OpenMP), running on       4 processor cores
     Number of MPI processes:                 4
     Threads/MPI process:                     1

     MPI processes distributed on     1 nodes
     612855 MiB available memory on the printing compute node when the environment starts
 
     Reading input from pw-si-92.in
Warning: card &CELL ignored
Warning: card / ignored

     Current dimensions of program PWSCF are:
     Max number of different atomic species (ntypx) = 10
     Max number of k-points (npk) =  40000
     Max angular momentum in pseudopotentials (lmaxx) =  4

     IMPORTANT: XC functional enforced from input :
     Exchange-correlation= PBE
                           (   1   4   3   4   0   0   0)
     Any further DFT definition will be discarded
     Please, verify this is what you really want


     gamma-point specific algorithms are used
 
     K-points division:     npool     =       2
     R & G space division:  proc/nbgrp/npool/nimage =       2
     Subspace diagonalization in iterative solution of the eigenvalue problem:
     a serial algorithm will be used

     Message from routine divide_et_impera:
     suboptimal parallelization: some nodes have no k-points
 
     Parallelization info
     --------------------
     sticks:   dense  smooth     PW     G-vecs:    dense   smooth      PW
     Min        2035    2035    536                98243    98243   13317
     Max        2036    2036    537                98244    98244   13320
     Sum        4071    4071   1073               196487   196487   26637
 
     Using Slab Decomposition
 


     bravais-lattice index     =            0
     lattice parameter (alat)  =      20.9675  a.u.
     unit-cell volume          =    8845.4282 (a.u.)^3
     number of atoms/cell      =           64
     number of atomic types    =            1
     number of electrons       =       256.00
     number of Kohn-Sham states=          128
     kinetic-energy cutoff     =      30.0000  Ry
     charge density cutoff     =     120.0000  Ry
     scf convergence threshold =      1.0E-06
     mixing beta               =       0.5000
     number of iterations used =            8  plain     mixing
     Exchange-correlation= PBE
                           (   1   4   3   4   0   0   0)

     GPU acceleration is ACTIVE.
     GPU-aware MPI enabled

     Message from routine print_cuda_info:
     High GPU oversubscription detected. Are you sure this is what you want?

     celldm(1)=  20.967511  celldm(2)=   0.000000  celldm(3)=   0.000000
     celldm(4)=   0.000000  celldm(5)=   0.000000  celldm(6)=   0.000000

     crystal axes: (cart. coord. in units of alat)
               a(1) = (   1.000000   0.000000   0.000000 )  
               a(2) = (   0.000000   0.968106   0.000000 )  
               a(3) = (   0.000000   0.000000   0.991186 )  

     reciprocal axes: (cart. coord. in units 2 pi/alat)
               b(1) = (  1.000000  0.000000  0.000000 )  
               b(2) = (  0.000000  1.032944  0.000000 )  
               b(3) = (  0.000000  0.000000  1.008892 )  


     PseudoPot. # 1 for Si read from file:
     /home/ppiaggi/pseudos/Si_ONCV_PBE_sr.upf
     MD5 check sum: 8553c464762ac42b85b1eed164b4d029
     Pseudo is Norm-conserving, Zval =  4.0
     Generated using ONCVPSP code by D. R. Hamann
     Using radial grid of 1510 points,  4 beta functions with: 
                l(1) =   0
                l(2) =   0
                l(3) =   1
                l(4) =   1

     atomic species   valence    mass     pseudopotential
        Si             4.00    28.08500     Si( 1.00)

     No symmetry found



   Cartesian axes

     site n.     atom                  positions (alat units)
         1           Si  tau(   1) = (  -0.0030923  -0.0065441   0.0056208  )
         2           Si  tau(   2) = (   0.0080744   0.2416863   0.2466303  )
         3           Si  tau(   3) = (   0.2454348   0.0027548   0.2459312  )
         4           Si  tau(   4) = (   0.2433325   0.2430260  -0.0037922  )
         5           Si  tau(   5) = (   0.1173285   0.1281488   0.1256094  )
         6           Si  tau(   6) = (   0.4963403  -0.0031923  -0.0029551  )
         7           Si  tau(   7) = (   0.4935952   0.2484675   0.2469126  )
         8           Si  tau(   8) = (   0.6179754   0.1289815   0.1155269  )
         9           Si  tau(   9) = (   0.7297641   0.0005841   0.2533333  )
        10           Si  tau(  10) = (   0.7366230   0.2489819  -0.0029750  )
        11           Si  tau(  11) = (  -0.0087288   0.4920478   0.0061579  )
        12           Si  tau(  12) = (   0.2411392   0.4864038   0.2407554  )
        13           Si  tau(  13) = (   0.1252383   0.6076741   0.1248246  )
        14           Si  tau(  14) = (   0.3676156   0.3617122   0.1330958  )
        15           Si  tau(  15) = (   0.4938362   0.4889831   0.0032447  )
        16           Si  tau(  16) = (   0.6138419   0.6052359   0.1331448  )
        17           Si  tau(  17) = (   0.8457222   0.3633197   0.1215496  )
        18           Si  tau(  18) = (   0.7403780   0.4837770   0.2409571  )
        19           Si  tau(  19) = (   0.0018005   0.7417207   0.2397575  )
        20           Si  tau(  20) = (   0.2374581   0.7384750  -0.0057816  )
        21           Si  tau(  21) = (   0.3570761   0.8475110   0.1253582  )
        22           Si  tau(  22) = (   0.4790583   0.7335908   0.2428718  )
        23           Si  tau(  23) = (   0.7340509   0.7243373  -0.0080895  )
        24           Si  tau(  24) = (   0.8519866   0.8539172   0.1283181  )
        25           Si  tau(  25) = (  -0.0026695  -0.0015054   0.4982893  )
        26           Si  tau(  26) = (   0.2518827   0.2529381   0.5016422  )
        27           Si  tau(  27) = (   0.1251759   0.1200676   0.6306207  )
        28           Si  tau(  28) = (   0.3668820   0.1241676   0.3755985  )
        29           Si  tau(  29) = (   0.4923479   0.0042510   0.5021909  )
        30           Si  tau(  30) = (   0.6081234   0.1227665   0.6130213  )
        31           Si  tau(  31) = (   0.8452489   0.1221031   0.3811709  )
        32           Si  tau(  32) = (   0.7327518   0.2359701   0.4999855  )
        33           Si  tau(  33) = (   0.1210599   0.3584991   0.3818822  )
        34           Si  tau(  34) = (  -0.0025277   0.4890751   0.4889335  )
        35           Si  tau(  35) = (   0.1168921   0.6123941   0.6303018  )
        36           Si  tau(  36) = (   0.6026014   0.3719900   0.3729507  )
        37           Si  tau(  37) = (   0.3710469   0.6027876   0.3640102  )
        38           Si  tau(  38) = (   0.3740072   0.3687047   0.6286282  )
        39           Si  tau(  39) = (   0.4920936   0.4947653   0.4976966  )
        40           Si  tau(  40) = (   0.6045650   0.6074580   0.6303717  )
        41           Si  tau(  41) = (   0.8519460   0.6149137   0.3699646  )
        42           Si  tau(  42) = (   0.8614566   0.3626034   0.6277302  )
        43           Si  tau(  43) = (   0.1237655   0.8496808   0.3697140  )
        44           Si  tau(  44) = (   0.2384517   0.7417244   0.5017954  )
        45           Si  tau(  45) = (   0.6128447   0.8613894   0.3745993  )
        46           Si  tau(  46) = (   0.3613017   0.8621041   0.6139294  )
        47           Si  tau(  47) = (   0.7268321   0.7291865   0.5047784  )
        48           Si  tau(  48) = (   0.8602043   0.8531626   0.6132101  )
        49           Si  tau(  49) = (  -0.0001857   0.2428742   0.7443661  )
        50           Si  tau(  50) = (   0.2485019  -0.0046958   0.7496841  )
        51           Si  tau(  51) = (   0.3605751   0.1282566   0.8792640  )
        52           Si  tau(  52) = (   0.4943354   0.2367430   0.7417285  )
        53           Si  tau(  53) = (   0.7393321   0.0053265   0.7402876  )
        54           Si  tau(  54) = (   0.8573954   0.1231437   0.8720088  )
        55           Si  tau(  55) = (   0.1189102   0.3645018   0.8774167  )
        56           Si  tau(  56) = (   0.2427132   0.4847499   0.7470239  )
        57           Si  tau(  57) = (   0.6123047   0.3629032   0.8757767  )
        58           Si  tau(  58) = (   0.3703329   0.6192342   0.8649105  )
        59           Si  tau(  59) = (   0.7292787   0.4951425   0.7392682  )
        60           Si  tau(  60) = (   0.8456573   0.6087746   0.8684851  )
        61           Si  tau(  61) = (   0.0014236   0.7350788   0.7480477  )
        62           Si  tau(  62) = (   0.1156783   0.8574316   0.8789649  )
        63           Si  tau(  63) = (   0.4826064   0.7397628   0.7402802  )
        64           Si  tau(  64) = (   0.6153913   0.8618516   0.8679476  )

     number of k points=     1
                       cart. coord. in units 2pi/alat
        k(    1) = (   0.0000000   0.0000000   0.0000000), wk =   2.0000000

     Dense  grid:    98244 G-vectors     FFT dimensions: (  75,  72,  75)

     Estimated max dynamical RAM per process >     144.63 MB

     Estimated total dynamical RAM >     554.52 MB

     Initial potential from superposition of free atoms

     starting charge     255.9608, renormalised to     256.0000
     Starting wfcs are  256 randomized atomic wfcs

     total cpu time spent up to now is        5.2 secs

     Self-consistent Calculation

     iteration #  1     ecut=    30.00 Ry     beta= 0.50
     Davidson diagonalization with overlap
     ethr =  1.00E-02,  avg # of iterations =  2.0

     Threshold (ethr) on eigenvalues was too large:
     Diagonalizing with lowered threshold

     Davidson diagonalization with overlap
     ethr =  6.64E-04,  avg # of iterations =  2.0

     total cpu time spent up to now is        5.5 secs

     total energy              =    -503.46992629 Ry
     estimated scf accuracy    <       1.90242256 Ry

     iteration #  2     ecut=    30.00 Ry     beta= 0.50
     Davidson diagonalization with overlap
     ethr =  7.43E-04,  avg # of iterations =  1.0

     total cpu time spent up to now is        5.5 secs

     total energy              =    -503.45104232 Ry
     estimated scf accuracy    <       0.36453279 Ry

     iteration #  3     ecut=    30.00 Ry     beta= 0.50
     Davidson diagonalization with overlap
     ethr =  1.42E-04,  avg # of iterations =  2.0

     total cpu time spent up to now is        5.6 secs

     total energy              =    -503.47911295 Ry
     estimated scf accuracy    <       0.00715667 Ry

     iteration #  4     ecut=    30.00 Ry     beta= 0.50
     Davidson diagonalization with overlap
     ethr =  2.80E-06,  avg # of iterations = 17.0

     total cpu time spent up to now is        5.8 secs

     total energy              =    -503.50121847 Ry
     estimated scf accuracy    <       0.02758232 Ry

     iteration #  5     ecut=    30.00 Ry     beta= 0.50
     Davidson diagonalization with overlap
     ethr =  2.80E-06,  avg # of iterations =  2.0

     total cpu time spent up to now is        5.9 secs

     total energy              =    -503.49754537 Ry
     estimated scf accuracy    <       0.01859733 Ry

     iteration #  6     ecut=    30.00 Ry     beta= 0.50
     Davidson diagonalization with overlap
     ethr =  2.80E-06,  avg # of iterations = 13.0

     total cpu time spent up to now is        6.1 secs

     total energy              =    -503.49610081 Ry
     estimated scf accuracy    <       0.00625708 Ry

     iteration #  7     ecut=    30.00 Ry     beta= 0.50
     Davidson diagonalization with overlap
     ethr =  2.44E-06,  avg # of iterations = 16.0

     total cpu time spent up to now is        6.3 secs

     total energy              =    -503.49742397 Ry
     estimated scf accuracy    <       0.00100536 Ry

     iteration #  8     ecut=    30.00 Ry     beta= 0.50
     Davidson diagonalization with overlap
     ethr =  3.93E-07,  avg # of iterations = 15.0

     total cpu time spent up to now is        6.4 secs

     total energy              =    -503.49753787 Ry
     estimated scf accuracy    <       0.00018798 Ry

     iteration #  9     ecut=    30.00 Ry     beta= 0.50
     Davidson diagonalization with overlap
     ethr =  7.34E-08,  avg # of iterations = 15.0

     total cpu time spent up to now is        6.6 secs

     total energy              =    -503.49758169 Ry
     estimated scf accuracy    <       0.00007614 Ry

     iteration # 10     ecut=    30.00 Ry     beta= 0.50
     Davidson diagonalization with overlap
     ethr =  2.97E-08,  avg # of iterations =  9.0

     total cpu time spent up to now is        6.7 secs

     total energy              =    -503.49758476 Ry
     estimated scf accuracy    <       0.00002346 Ry

     iteration # 11     ecut=    30.00 Ry     beta= 0.50
     Davidson diagonalization with overlap
     c_bands:  1 eigenvalues not converged
     ethr =  9.17E-09,  avg # of iterations = 20.0

     total cpu time spent up to now is        7.0 secs

     total energy              =    -503.49759059 Ry
     estimated scf accuracy    <       0.00001135 Ry

     iteration # 12     ecut=    30.00 Ry     beta= 0.50
     Davidson diagonalization with overlap
     ethr =  4.43E-09,  avg # of iterations =  6.0

     total cpu time spent up to now is        7.1 secs

     total energy              =    -503.49759050 Ry
     estimated scf accuracy    <       0.00000427 Ry

     iteration # 13     ecut=    30.00 Ry     beta= 0.50
     Davidson diagonalization with overlap
     ethr =  1.67E-09,  avg # of iterations = 17.0

     total cpu time spent up to now is        7.2 secs

     End of self-consistent calculation

          k = 0.0000 0.0000 0.0000 ( 12280 PWs)   bands (ev):

    -5.8941  -5.0393  -4.9694  -4.8135  -4.7822  -4.7586  -4.6025  -4.1773
    -4.0960  -4.0340  -3.9991  -3.9295  -3.8891  -3.8405  -3.8250  -3.7371
    -3.6991  -3.6609  -3.5921  -3.5770  -3.5364  -3.4646  -3.1757  -2.0680
    -2.0364  -1.9471  -1.8939  -1.8157  -1.8013  -1.7668  -1.7523  -1.7246
    -1.6602  -1.6025  -1.5171  -1.4993  -1.4341  -1.4253  -1.3338  -1.3099
    -1.2756  -1.0592  -0.8215  -0.8036  -0.6937   0.2765   0.3440   0.3776
     0.4607   0.5314   0.5654   0.6035   0.6295   0.6394   0.7035   0.7362
     0.7918   1.8876   1.9643   2.0151   2.0291   2.0629   2.1001   2.1299
     2.1414   2.1728   2.1960   2.2030   2.2362   2.2432   2.2519   2.2976
     2.3241   2.3300   2.3389   2.3800   2.3972   2.4298   2.4674   2.5150
     2.5256   2.5306   2.5693   2.6700   2.7242   2.7580   2.8614   3.0763
     3.0801   3.2415   3.2784   3.3353   3.3575   3.9095   3.9492   4.0036
     4.0284   4.0656   4.1267   4.1383   4.2124   4.2493   4.2794   4.3061
     4.3200   4.4763   4.5132   4.5836   4.5911   4.6269   4.6395   4.6644
     4.6985   4.7636   4.7908   4.8269   4.8521   4.8801   4.9054   4.9513
     4.9645   5.0490   5.0870   5.1097   5.6765   5.8540   6.0535   6.3726

     highest occupied level (ev):     6.3726

!    total energy              =    -503.49759117 Ry
     estimated scf accuracy    <       0.00000040 Ry

     The total energy is the sum of the following terms:
     one-electron contribution =     143.10727896 Ry
     hartree contribution      =      38.01125866 Ry
     xc contribution           =    -153.55456218 Ry
     ewald contribution        =    -531.06156661 Ry

     convergence has been achieved in  13 iterations

     Forces acting on atoms (cartesian axes, Ry/au):

     atom    1 type  1   force =    -0.08395063    0.08061853    0.04074717
     atom    2 type  1   force =    -0.11452227    0.03822295    0.04143128
     atom    3 type  1   force =    -0.01156240    0.02915673    0.01510387
     atom    4 type  1   force =    -0.01948311    0.04552532    0.08133595
     atom    5 type  1   force =     0.03663102   -0.06189685   -0.03593833
     atom    6 type  1   force =    -0.06018687    0.05510836    0.05754709
     atom    7 type  1   force =    -0.00236177   -0.03814822    0.01192433
     atom    8 type  1   force =    -0.02143921   -0.03600567    0.04050376
     atom    9 type  1   force =     0.02978927    0.05402427   -0.04308526
     atom   10 type  1   force =     0.01446061   -0.02986188   -0.01084804
     atom   11 type  1   force =    -0.04010436   -0.01875712   -0.01229881
     atom   12 type  1   force =     0.00858102   -0.03252222    0.05691978
     atom   13 type  1   force =    -0.03833973    0.03431284   -0.02387347
     atom   14 type  1   force =    -0.01968303    0.01758989   -0.06623430
     atom   15 type  1   force =    -0.02642542    0.00273415    0.00840235
     atom   16 type  1   force =    -0.01157765    0.02919586   -0.04391225
     atom   17 type  1   force =     0.12917731    0.00028102    0.00961692
     atom   18 type  1   force =    -0.02892464    0.02117636    0.07117956
     atom   19 type  1   force =    -0.05147236   -0.03542989    0.01739000
     atom   20 type  1   force =     0.03236237   -0.05222598    0.02986922
     atom   21 type  1   force =     0.02455704    0.02269974   -0.04065429
     atom   22 type  1   force =     0.06585072   -0.00421943    0.03210365
     atom   23 type  1   force =    -0.03695469    0.06320874    0.07592825
     atom   24 type  1   force =     0.03704986   -0.03432541   -0.03297445
     atom   25 type  1   force =    -0.01749187    0.03308032   -0.01455769
     atom   26 type  1   force =    -0.00712243   -0.04056711    0.02111685
     atom   27 type  1   force =    -0.00105510    0.00033705   -0.04020683
     atom   28 type  1   force =     0.00390914    0.00849460   -0.00964258
     atom   29 type  1   force =    -0.02730637    0.00634558   -0.05652923
     atom   30 type  1   force =     0.03675369   -0.01534142    0.05817303
     atom   31 type  1   force =     0.09909841   -0.03439645   -0.03815351
     atom   32 type  1   force =    -0.00714709    0.10161003    0.00199495
     atom   33 type  1   force =     0.00376658    0.03636869   -0.04319923
     atom   34 type  1   force =    -0.05106782    0.01656820    0.04002756
     atom   35 type  1   force =     0.01567639   -0.02516031   -0.04471077
     atom   36 type  1   force =     0.07060007   -0.01543359    0.01114202
     atom   37 type  1   force =    -0.05816522    0.03557753    0.04189846
     atom   38 type  1   force =    -0.00767463    0.00664830   -0.01746425
     atom   39 type  1   force =    -0.02114398   -0.02028155    0.00517660
     atom   40 type  1   force =    -0.00945393    0.04363285   -0.03875273
     atom   41 type  1   force =     0.05214127   -0.01040894   -0.00107939
     atom   42 type  1   force =     0.01404184    0.01366948   -0.03563454
     atom   43 type  1   force =    -0.02469120    0.02537883    0.00359239
     atom   44 type  1   force =     0.01818924   -0.07080928   -0.02357739
     atom   45 type  1   force =    -0.04546601   -0.08258459    0.01780689
     atom   46 type  1   force =     0.01667782   -0.04173079    0.02094487
     atom   47 type  1   force =     0.01711850    0.01035197   -0.03152139
     atom   48 type  1   force =     0.02714517   -0.02133196    0.03227659
     atom   49 type  1   force =    -0.03954126    0.00999601    0.03305164
     atom   50 type  1   force =    -0.02205495    0.04772084    0.03053139
     atom   51 type  1   force =     0.05872905   -0.06806273   -0.07127145
     atom   52 type  1   force =    -0.02072489    0.03229174    0.04729431
     atom   53 type  1   force =     0.00294457    0.01161714   -0.01093181
     atom   54 type  1   force =     0.05154317   -0.01025703   -0.01402431
     atom   55 type  1   force =    -0.02412827    0.02284386   -0.03085190
     atom   56 type  1   force =     0.00846667    0.01876658    0.01542280
     atom   57 type  1   force =    -0.01349713    0.02900944   -0.06185535
     atom   58 type  1   force =    -0.03488553   -0.03760634    0.02254852
     atom   59 type  1   force =     0.03304174   -0.07671988    0.03749725
     atom   60 type  1   force =     0.10354527   -0.02019462   -0.02889194
     atom   61 type  1   force =    -0.07561159    0.00838516    0.00973520
     atom   62 type  1   force =     0.01331527   -0.03130264   -0.07758966
     atom   63 type  1   force =     0.02823964    0.02261331    0.00370360
     atom   64 type  1   force =     0.02181468   -0.06958036   -0.04367294

     Total force =     0.560437     Total SCF correction =     0.001135


     Computing stress (Cartesian axis) and pressure

          total   stress  (Ry/bohr**3)                   (kbar)     P=       17.11
   0.00006833  -0.00012722  -0.00002085           10.05      -18.71       -3.07
  -0.00012722   0.00018363   0.00011819          -18.71       27.01       17.39
  -0.00002085   0.00011819   0.00009705           -3.07       17.39       14.28

 
     init_run     :      1.41s CPU      5.14s WALL (       1 calls)
     electrons    :      1.89s CPU      2.03s WALL (       1 calls)
     forces       :      0.04s CPU      0.05s WALL (       1 calls)
     stress       :      0.14s CPU      0.15s WALL (       1 calls)

     Called by init_run:
     wfcinit      :      0.76s CPU      4.28s WALL (       1 calls)
                                        4.28s GPU  (       1 calls)
     potinit      :      0.21s CPU      0.34s WALL (       1 calls)
     hinit0       :      0.42s CPU      0.45s WALL (       1 calls)

     Called by electrons:
     c_bands      :      1.34s CPU      1.39s WALL (      14 calls)
     sum_band     :      0.28s CPU      0.32s WALL (      14 calls)
     v_of_rho     :      0.14s CPU      0.28s WALL (      14 calls)
     mix_rho      :      0.12s CPU      0.14s WALL (      14 calls)

     Called by c_bands:
     init_us_2    :      0.05s CPU      0.05s WALL (      29 calls)
     init_us_2:gp :      0.05s CPU      0.05s WALL (      29 calls)
     regterg      :      1.21s CPU      1.26s WALL (      14 calls)

     Called by *egterg:
     rdiaghg      :      0.61s CPU      1.33s WALL (     150 calls)
                                        1.30s GPU  (     150 calls)
     h_psi        :      1.17s CPU      4.01s WALL (     152 calls)
                                        4.01s GPU  (     152 calls)
     g_psi        :      0.00s CPU      0.00s WALL (     137 calls)
                                        0.00s GPU  (     137 calls)

     Called by h_psi:
     h_psi:calbec :      0.69s CPU      3.44s WALL (     152 calls)
                                        3.44s GPU  (     152 calls)
     vloc_psi     :      0.38s CPU      0.47s WALL (     152 calls)
                                        0.46s GPU  (     152 calls)
     add_vuspsi   :      0.08s CPU      0.10s WALL (     152 calls)
                                        0.09s GPU  (     152 calls)

     General routines
     calbec       :      0.70s CPU      3.45s WALL (     157 calls)
     fft          :      0.51s CPU      0.67s WALL (     119 calls)
                                        0.17s GPU  (      76 calls)
     ffts         :      0.04s CPU      0.05s WALL (      14 calls)
     fftw         :      0.41s CPU      0.57s WALL (    1422 calls)
                                        0.52s GPU  (    1422 calls)
 
     Parallel routines
 
     PWSCF        :      3.53s CPU      7.46s WALL

 
   This run was terminated on:  15:40:45   8May2023            

=------------------------------------------------------------------------------=
   JOB DONE.
=------------------------------------------------------------------------------=
