An instance of this daemon is already running

     Program PWSCF v.7.1 starts on  8May2023 at 15:40:57 

     This program is part of the open-source Quantum ESPRESSO suite
     for quantum simulation of materials; please cite
         "P. Giannozzi et al., J. Phys.:Condens. Matter 21 395502 (2009);
         "P. Giannozzi et al., J. Phys.:Condens. Matter 29 465901 (2017);
         "P. Giannozzi et al., J. Chem. Phys. 152 154105 (2020);
          URL http://www.quantum-espresso.org", 
     in publications or presentations arising from this work. More details at
     http://www.quantum-espresso.org/quote

     Parallel version (MPI & OpenMP), running on       4 processor cores
     Number of MPI processes:                 4
     Threads/MPI process:                     1

     MPI processes distributed on     1 nodes
     612665 MiB available memory on the printing compute node when the environment starts
 
     Reading input from pw-si-94.in
Warning: card &CELL ignored
Warning: card / ignored

     Current dimensions of program PWSCF are:
     Max number of different atomic species (ntypx) = 10
     Max number of k-points (npk) =  40000
     Max angular momentum in pseudopotentials (lmaxx) =  4

     IMPORTANT: XC functional enforced from input :
     Exchange-correlation= PBE
                           (   1   4   3   4   0   0   0)
     Any further DFT definition will be discarded
     Please, verify this is what you really want


     gamma-point specific algorithms are used
 
     K-points division:     npool     =       2
     R & G space division:  proc/nbgrp/npool/nimage =       2
     Subspace diagonalization in iterative solution of the eigenvalue problem:
     a serial algorithm will be used

     Message from routine divide_et_impera:
     suboptimal parallelization: some nodes have no k-points
 
     Parallelization info
     --------------------
     sticks:   dense  smooth     PW     G-vecs:    dense   smooth      PW
     Min        2053    2053    543                97599    97599   13247
     Max        2056    2056    548                97600    97600   13248
     Sum        4109    4109   1091               195199   195199   26495
 
     Using Slab Decomposition
 


     bravais-lattice index     =            0
     lattice parameter (alat)  =      20.1526  a.u.
     unit-cell volume          =    8793.4512 (a.u.)^3
     number of atoms/cell      =           64
     number of atomic types    =            1
     number of electrons       =       256.00
     number of Kohn-Sham states=          128
     kinetic-energy cutoff     =      30.0000  Ry
     charge density cutoff     =     120.0000  Ry
     scf convergence threshold =      1.0E-06
     mixing beta               =       0.5000
     number of iterations used =            8  plain     mixing
     Exchange-correlation= PBE
                           (   1   4   3   4   0   0   0)

     GPU acceleration is ACTIVE.
     GPU-aware MPI enabled

     Message from routine print_cuda_info:
     High GPU oversubscription detected. Are you sure this is what you want?

     celldm(1)=  20.152641  celldm(2)=   0.000000  celldm(3)=   0.000000
     celldm(4)=   0.000000  celldm(5)=   0.000000  celldm(6)=   0.000000

     crystal axes: (cart. coord. in units of alat)
               a(1) = (   1.000000   0.000000   0.000000 )  
               a(2) = (   0.000000   1.058554   0.000000 )  
               a(3) = (   0.000000   0.000000   1.014963 )  

     reciprocal axes: (cart. coord. in units 2 pi/alat)
               b(1) = (  1.000000  0.000000  0.000000 )  
               b(2) = (  0.000000  0.944685  0.000000 )  
               b(3) = (  0.000000  0.000000  0.985257 )  


     PseudoPot. # 1 for Si read from file:
     /home/ppiaggi/pseudos/Si_ONCV_PBE_sr.upf
     MD5 check sum: 8553c464762ac42b85b1eed164b4d029
     Pseudo is Norm-conserving, Zval =  4.0
     Generated using ONCVPSP code by D. R. Hamann
     Using radial grid of 1510 points,  4 beta functions with: 
                l(1) =   0
                l(2) =   0
                l(3) =   1
                l(4) =   1

     atomic species   valence    mass     pseudopotential
        Si             4.00    28.08500     Si( 1.00)

     No symmetry found



   Cartesian axes

     site n.     atom                  positions (alat units)
         1           Si  tau(   1) = (  -0.0030488  -0.0031782   0.0055945  )
         2           Si  tau(   2) = (  -0.0002501   0.2685848   0.2648342  )
         3           Si  tau(   3) = (   0.2508835  -0.0016205   0.2528693  )
         4           Si  tau(   4) = (   0.2497133   0.2581714  -0.0086906  )
         5           Si  tau(   5) = (   0.1196067   0.1257586   0.1268791  )
         6           Si  tau(   6) = (   0.5084326   0.0013305  -0.0069161  )
         7           Si  tau(   7) = (   0.5135948   0.2645834   0.2542901  )
         8           Si  tau(   8) = (   0.6279433   0.1416053   0.1264612  )
         9           Si  tau(   9) = (   0.7523009   0.0038253   0.2573771  )
        10           Si  tau(  10) = (   0.7627427   0.2740828  -0.0055211  )
        11           Si  tau(  11) = (   0.0001679   0.5377557   0.0043297  )
        12           Si  tau(  12) = (   0.2463029   0.5224932   0.2538423  )
        13           Si  tau(  13) = (   0.1210790   0.6611022   0.1368732  )
        14           Si  tau(  14) = (   0.3830029   0.3998928   0.1384484  )
        15           Si  tau(  15) = (   0.4986117   0.5217302  -0.0049268  )
        16           Si  tau(  16) = (   0.6236432   0.6616425   0.1317570  )
        17           Si  tau(  17) = (   0.8926200   0.3998488   0.1221568  )
        18           Si  tau(  18) = (   0.7625870   0.5292915   0.2673437  )
        19           Si  tau(  19) = (   0.0065482   0.7857318   0.2515320  )
        20           Si  tau(  20) = (   0.2501468   0.7911317   0.0079244  )
        21           Si  tau(  21) = (   0.3728969   0.9363204   0.1367260  )
        22           Si  tau(  22) = (   0.5056036   0.7895533   0.2590943  )
        23           Si  tau(  23) = (   0.7551791   0.7924708   0.0088604  )
        24           Si  tau(  24) = (   0.8853553   0.9224499   0.1347758  )
        25           Si  tau(  25) = (  -0.0031169  -0.0045962   0.5102276  )
        26           Si  tau(  26) = (   0.2544368   0.2617917   0.5214505  )
        27           Si  tau(  27) = (   0.1287821   0.1361338   0.6479181  )
        28           Si  tau(  28) = (   0.3817111   0.1352547   0.3917640  )
        29           Si  tau(  29) = (   0.5038303   0.0054568   0.5120945  )
        30           Si  tau(  30) = (   0.6236744   0.1372053   0.6544644  )
        31           Si  tau(  31) = (   0.8813113   0.1392245   0.3843898  )
        32           Si  tau(  32) = (   0.7567980   0.2553853   0.5217421  )
        33           Si  tau(  33) = (   0.1290858   0.4042960   0.3902800  )
        34           Si  tau(  34) = (  -0.0022789   0.5359965   0.5212773  )
        35           Si  tau(  35) = (   0.1231671   0.6715853   0.6387771  )
        36           Si  tau(  36) = (   0.6313317   0.3971222   0.3806416  )
        37           Si  tau(  37) = (   0.3801307   0.6581173   0.3809690  )
        38           Si  tau(  38) = (   0.3800833   0.3990317   0.6529587  )
        39           Si  tau(  39) = (   0.5089571   0.5318194   0.5078938  )
        40           Si  tau(  40) = (   0.6341626   0.6587306   0.6426506  )
        41           Si  tau(  41) = (   0.8918560   0.6669552   0.3809004  )
        42           Si  tau(  42) = (   0.8764144   0.3952795   0.6401545  )
        43           Si  tau(  43) = (   0.1208763   0.9246595   0.3783671  )
        44           Si  tau(  44) = (   0.2533492   0.7853611   0.5232957  )
        45           Si  tau(  45) = (   0.6299442   0.9277880   0.3925716  )
        46           Si  tau(  46) = (   0.3853301   0.9266873   0.6471783  )
        47           Si  tau(  47) = (   0.7592461   0.7963216   0.5086914  )
        48           Si  tau(  48) = (   0.8784204   0.9236469   0.6378521  )
        49           Si  tau(  49) = (   0.0041829   0.2681275   0.7833431  )
        50           Si  tau(  50) = (   0.2597533   0.0061760   0.7813964  )
        51           Si  tau(  51) = (   0.3736011   0.1279683   0.8980065  )
        52           Si  tau(  52) = (   0.5108097   0.2703656   0.7713862  )
        53           Si  tau(  53) = (   0.7609265  -0.0028530   0.7820785  )
        54           Si  tau(  54) = (   0.8875115   0.1264110   0.9010975  )
        55           Si  tau(  55) = (   0.1293862   0.3993569   0.9054598  )
        56           Si  tau(  56) = (   0.2586297   0.5304155   0.7685788  )
        57           Si  tau(  57) = (   0.6283132   0.3966048   0.9032052  )
        58           Si  tau(  58) = (   0.3705482   0.6680802   0.9001740  )
        59           Si  tau(  59) = (   0.7576219   0.5366868   0.7768359  )
        60           Si  tau(  60) = (   0.8830309   0.6672334   0.9109622  )
        61           Si  tau(  61) = (  -0.0058811   0.7906472   0.7777761  )
        62           Si  tau(  62) = (   0.1290756   0.9335245   0.9024935  )
        63           Si  tau(  63) = (   0.5093268   0.7918685   0.7654656  )
        64           Si  tau(  64) = (   0.6389289   0.9213017   0.9048237  )

     number of k points=     1
                       cart. coord. in units 2pi/alat
        k(    1) = (   0.0000000   0.0000000   0.0000000), wk =   2.0000000

     Dense  grid:    97600 G-vectors     FFT dimensions: (  72,  75,  72)

     Estimated max dynamical RAM per process >     143.12 MB

     Estimated total dynamical RAM >     548.64 MB

     Initial potential from superposition of free atoms

     starting charge     255.9608, renormalised to     256.0000
     Starting wfcs are  256 randomized atomic wfcs

     total cpu time spent up to now is        5.4 secs

     Self-consistent Calculation

     iteration #  1     ecut=    30.00 Ry     beta= 0.50
     Davidson diagonalization with overlap
     ethr =  1.00E-02,  avg # of iterations =  2.0

     Threshold (ethr) on eigenvalues was too large:
     Diagonalizing with lowered threshold

     Davidson diagonalization with overlap
     ethr =  6.67E-04,  avg # of iterations =  2.0

     total cpu time spent up to now is        5.6 secs

     total energy              =    -503.55519560 Ry
     estimated scf accuracy    <       1.90759195 Ry

     iteration #  2     ecut=    30.00 Ry     beta= 0.50
     Davidson diagonalization with overlap
     ethr =  7.45E-04,  avg # of iterations =  1.0

     total cpu time spent up to now is        5.7 secs

     total energy              =    -503.53511117 Ry
     estimated scf accuracy    <       0.36569851 Ry

     iteration #  3     ecut=    30.00 Ry     beta= 0.50
     Davidson diagonalization with overlap
     ethr =  1.43E-04,  avg # of iterations =  2.0

     total cpu time spent up to now is        5.8 secs

     total energy              =    -503.56323654 Ry
     estimated scf accuracy    <       0.00702415 Ry

     iteration #  4     ecut=    30.00 Ry     beta= 0.50
     Davidson diagonalization with overlap
     ethr =  2.74E-06,  avg # of iterations = 14.0

     total cpu time spent up to now is        6.0 secs

     total energy              =    -503.57136269 Ry
     estimated scf accuracy    <       0.00615372 Ry

     iteration #  5     ecut=    30.00 Ry     beta= 0.50
     Davidson diagonalization with overlap
     ethr =  2.40E-06,  avg # of iterations =  9.0

     total cpu time spent up to now is        6.1 secs

     total energy              =    -503.57167693 Ry
     estimated scf accuracy    <       0.00109793 Ry

     iteration #  6     ecut=    30.00 Ry     beta= 0.50
     Davidson diagonalization with overlap
     ethr =  4.29E-07,  avg # of iterations = 15.0

     total cpu time spent up to now is        6.3 secs

     total energy              =    -503.57193790 Ry
     estimated scf accuracy    <       0.00058120 Ry

     iteration #  7     ecut=    30.00 Ry     beta= 0.50
     Davidson diagonalization with overlap
     ethr =  2.27E-07,  avg # of iterations =  6.0

     total cpu time spent up to now is        6.4 secs

     total energy              =    -503.57200802 Ry
     estimated scf accuracy    <       0.00009109 Ry

     iteration #  8     ecut=    30.00 Ry     beta= 0.50
     Davidson diagonalization with overlap
     ethr =  3.56E-08,  avg # of iterations = 10.0

     total cpu time spent up to now is        6.5 secs

     total energy              =    -503.57201234 Ry
     estimated scf accuracy    <       0.00003010 Ry

     iteration #  9     ecut=    30.00 Ry     beta= 0.50
     Davidson diagonalization with overlap
     ethr =  1.18E-08,  avg # of iterations = 12.0

     total cpu time spent up to now is        6.7 secs

     total energy              =    -503.57201758 Ry
     estimated scf accuracy    <       0.00000264 Ry

     iteration # 10     ecut=    30.00 Ry     beta= 0.50
     Davidson diagonalization with overlap
     ethr =  1.03E-09,  avg # of iterations =  5.0

     total cpu time spent up to now is        6.8 secs

     total energy              =    -503.57201846 Ry
     estimated scf accuracy    <       0.00000181 Ry

     iteration # 11     ecut=    30.00 Ry     beta= 0.50
     Davidson diagonalization with overlap
     ethr =  7.08E-10,  avg # of iterations =  3.0

     total cpu time spent up to now is        6.9 secs

     End of self-consistent calculation

          k = 0.0000 0.0000 0.0000 ( 12221 PWs)   bands (ev):

    -5.8602  -5.0076  -4.8462  -4.8085  -4.7177  -4.6784  -4.5776  -4.1128
    -4.0586  -3.9480  -3.8599  -3.8428  -3.8007  -3.7804  -3.7346  -3.6988
    -3.6381  -3.6031  -3.5325  -3.4996  -3.4352  -3.3721  -3.3142  -2.0426
    -2.0206  -1.8551  -1.8174  -1.7623  -1.7062  -1.6626  -1.6196  -1.5928
    -1.5324  -1.5203  -1.4773  -1.4377  -1.4188  -1.3900  -1.3384  -1.2921
    -1.2136  -0.9163  -0.8301  -0.7639  -0.6474   0.3400   0.4346   0.4935
     0.5169   0.5699   0.6233   0.6570   0.6640   0.7146   0.7751   0.8184
     0.8550   1.9204   1.9859   2.0042   2.0654   2.1022   2.1351   2.1487
     2.2429   2.2604   2.2917   2.3047   2.3142   2.3274   2.3609   2.3815
     2.4247   2.4448   2.4477   2.4739   2.4805   2.4889   2.5439   2.5714
     2.6221   2.6383   2.6504   2.6904   2.7110   2.7963   2.8655   3.0798
     3.1231   3.1949   3.2552   3.5225   3.5846   3.9349   3.9723   4.0549
     4.1011   4.1112   4.1598   4.2192   4.2248   4.2628   4.3059   4.4062
     4.4257   4.4851   4.5042   4.5893   4.6092   4.6684   4.6792   4.7313
     4.7875   4.7999   4.8490   4.8934   4.9186   4.9810   5.0936   5.1199
     5.1829   5.2207   5.2685   5.2766   5.3640   5.9337   6.1741   6.3634

     highest occupied level (ev):     6.3634

!    total energy              =    -503.57201819 Ry
     estimated scf accuracy    <       0.00000057 Ry

     The total energy is the sum of the following terms:
     one-electron contribution =     145.53242710 Ry
     hartree contribution      =      37.56484078 Ry
     xc contribution           =    -153.82537829 Ry
     ewald contribution        =    -532.84390777 Ry

     convergence has been achieved in  11 iterations

     Forces acting on atoms (cartesian axes, Ry/au):

     atom    1 type  1   force =     0.02967447   -0.02150018    0.03668222
     atom    2 type  1   force =     0.05001902    0.01069970   -0.03754591
     atom    3 type  1   force =    -0.02335191    0.04981100    0.05880504
     atom    4 type  1   force =     0.00696498    0.01236038    0.10863078
     atom    5 type  1   force =     0.01712486    0.04325744    0.02490654
     atom    6 type  1   force =    -0.01542766   -0.00268413    0.07156105
     atom    7 type  1   force =    -0.05075609    0.01167011    0.03853576
     atom    8 type  1   force =     0.03802976   -0.03633195   -0.03538061
     atom    9 type  1   force =     0.00764764   -0.00246811    0.00345303
     atom   10 type  1   force =     0.00672117   -0.04713222    0.05702848
     atom   11 type  1   force =     0.06433617   -0.03164270    0.02549969
     atom   12 type  1   force =     0.02906667    0.03504592    0.02208571
     atom   13 type  1   force =     0.05709037   -0.03447927   -0.05045683
     atom   14 type  1   force =    -0.02149822   -0.04015826   -0.04956245
     atom   15 type  1   force =    -0.01772554    0.05751874    0.06633853
     atom   16 type  1   force =     0.02249864   -0.04078224   -0.00507093
     atom   17 type  1   force =    -0.05769742   -0.00674458    0.05652753
     atom   18 type  1   force =    -0.00392096    0.00552751   -0.05781904
     atom   19 type  1   force =    -0.00760119    0.06997812    0.03576817
     atom   20 type  1   force =    -0.01331592    0.04214665    0.04198677
     atom   21 type  1   force =     0.06709608   -0.06458226   -0.05141457
     atom   22 type  1   force =    -0.02327897    0.05459685    0.00757376
     atom   23 type  1   force =     0.00022023   -0.00390825    0.05945790
     atom   24 type  1   force =    -0.04702022    0.00828778    0.00253961
     atom   25 type  1   force =     0.03588844    0.03303111    0.00632948
     atom   26 type  1   force =     0.00547647    0.03570347   -0.00933427
     atom   27 type  1   force =    -0.02027169   -0.02872020    0.00309222
     atom   28 type  1   force =    -0.01487067    0.00411008   -0.04828695
     atom   29 type  1   force =     0.00851225   -0.01883488    0.04143365
     atom   30 type  1   force =     0.04267968   -0.05538742   -0.03051413
     atom   31 type  1   force =    -0.02923206   -0.04511566    0.01860389
     atom   32 type  1   force =    -0.02839496    0.02784621   -0.02344181
     atom   33 type  1   force =    -0.01889351   -0.03312834    0.02941977
     atom   34 type  1   force =     0.02649317   -0.01606360   -0.02458617
     atom   35 type  1   force =    -0.01635696   -0.05805016    0.06814425
     atom   36 type  1   force =     0.02251844   -0.01724503    0.04370300
     atom   37 type  1   force =    -0.02564105   -0.00172074    0.01614767
     atom   38 type  1   force =     0.02719022   -0.00398923   -0.06548323
     atom   39 type  1   force =    -0.01760639   -0.02562478    0.02532990
     atom   40 type  1   force =     0.00225111    0.01402036   -0.02512943
     atom   41 type  1   force =    -0.05357401   -0.02295453    0.03813892
     atom   42 type  1   force =     0.00574065    0.00927922    0.04568350
     atom   43 type  1   force =     0.03779256   -0.01479749    0.03453771
     atom   44 type  1   force =     0.03211661    0.06581408   -0.06741186
     atom   45 type  1   force =    -0.00711106    0.00467862   -0.03463235
     atom   46 type  1   force =    -0.02520765    0.01265147   -0.01439417
     atom   47 type  1   force =    -0.00539324   -0.02618143    0.01120277
     atom   48 type  1   force =    -0.00921716    0.00791993    0.03843899
     atom   49 type  1   force =     0.00410965    0.00232592   -0.05115343
     atom   50 type  1   force =    -0.04808609   -0.05826796   -0.08026547
     atom   51 type  1   force =     0.08667921    0.05491999   -0.02029843
     atom   52 type  1   force =    -0.05397410   -0.00643300    0.03728025
     atom   53 type  1   force =    -0.01991512    0.00388976   -0.05288596
     atom   54 type  1   force =    -0.03874585    0.04559300   -0.03196083
     atom   55 type  1   force =    -0.00257148    0.03881649   -0.05330386
     atom   56 type  1   force =    -0.05575768    0.02696665    0.01689699
     atom   57 type  1   force =     0.02516921    0.02006129   -0.06597534
     atom   58 type  1   force =     0.05200730   -0.02872183   -0.04973194
     atom   59 type  1   force =    -0.00037415   -0.02963585   -0.00278275
     atom   60 type  1   force =    -0.04787619   -0.00711298   -0.07001257
     atom   61 type  1   force =     0.05213323    0.05064344   -0.02896049
     atom   62 type  1   force =    -0.00745042   -0.03869184   -0.03313376
     atom   63 type  1   force =    -0.00047112    0.00626260    0.03813715
     atom   64 type  1   force =    -0.03466161    0.00365720   -0.05897115

     Total force =     0.517233     Total SCF correction =     0.001309


     Computing stress (Cartesian axis) and pressure

          total   stress  (Ry/bohr**3)                   (kbar)     P=       21.35
   0.00028351  -0.00006677  -0.00004682           41.71       -9.82       -6.89
  -0.00006677  -0.00004256   0.00001063           -9.82       -6.26        1.56
  -0.00004682   0.00001063   0.00019440           -6.89        1.56       28.60

 
     init_run     :      1.20s CPU      5.30s WALL (       1 calls)
     electrons    :      1.40s CPU      1.50s WALL (       1 calls)
     forces       :      0.04s CPU      0.05s WALL (       1 calls)
     stress       :      0.14s CPU      0.14s WALL (       1 calls)

     Called by init_run:
     wfcinit      :      0.56s CPU      4.47s WALL (       1 calls)
                                        4.47s GPU  (       1 calls)
     potinit      :      0.21s CPU      0.31s WALL (       1 calls)
     hinit0       :      0.41s CPU      0.44s WALL (       1 calls)

     Called by electrons:
     c_bands      :      0.94s CPU      0.97s WALL (      12 calls)
     sum_band     :      0.25s CPU      0.28s WALL (      12 calls)
     v_of_rho     :      0.12s CPU      0.23s WALL (      12 calls)
     mix_rho      :      0.09s CPU      0.11s WALL (      12 calls)

     Called by c_bands:
     init_us_2    :      0.04s CPU      0.04s WALL (      25 calls)
     init_us_2:gp :      0.04s CPU      0.04s WALL (      25 calls)
     regterg      :      0.82s CPU      0.85s WALL (      12 calls)

     Called by *egterg:
     rdiaghg      :      0.37s CPU      1.13s WALL (      92 calls)
                                        1.12s GPU  (      92 calls)
     h_psi        :      0.86s CPU      4.02s WALL (      94 calls)
                                        4.01s GPU  (      94 calls)
     g_psi        :      0.00s CPU      0.00s WALL (      81 calls)
                                        0.00s GPU  (      81 calls)

     Called by h_psi:
     h_psi:calbec :      0.50s CPU      3.59s WALL (      94 calls)
                                        3.59s GPU  (      94 calls)
     vloc_psi     :      0.30s CPU      0.37s WALL (      94 calls)
                                        0.36s GPU  (      94 calls)
     add_vuspsi   :      0.04s CPU      0.06s WALL (      94 calls)
                                        0.06s GPU  (      94 calls)

     General routines
     calbec       :      0.51s CPU      3.59s WALL (      99 calls)
     fft          :      0.47s CPU      0.61s WALL (     103 calls)
                                        0.13s GPU  (      66 calls)
     ffts         :      0.03s CPU      0.04s WALL (      12 calls)
     fftw         :      0.34s CPU      0.47s WALL (    1158 calls)
                                        0.42s GPU  (    1158 calls)
 
     Parallel routines
 
     PWSCF        :      2.83s CPU      7.08s WALL

 
   This run was terminated on:  15:41: 4   8May2023            

=------------------------------------------------------------------------------=
   JOB DONE.
=------------------------------------------------------------------------------=
