An instance of this daemon is already running

     Program PWSCF v.7.1 starts on  8May2023 at 15:24: 1 

     This program is part of the open-source Quantum ESPRESSO suite
     for quantum simulation of materials; please cite
         "P. Giannozzi et al., J. Phys.:Condens. Matter 21 395502 (2009);
         "P. Giannozzi et al., J. Phys.:Condens. Matter 29 465901 (2017);
         "P. Giannozzi et al., J. Chem. Phys. 152 154105 (2020);
          URL http://www.quantum-espresso.org", 
     in publications or presentations arising from this work. More details at
     http://www.quantum-espresso.org/quote

     Parallel version (MPI & OpenMP), running on       4 processor cores
     Number of MPI processes:                 4
     Threads/MPI process:                     1

     MPI processes distributed on     1 nodes
     618670 MiB available memory on the printing compute node when the environment starts
 
     Reading input from pw-si-7.in
Warning: card &CELL ignored
Warning: card / ignored

     Current dimensions of program PWSCF are:
     Max number of different atomic species (ntypx) = 10
     Max number of k-points (npk) =  40000
     Max angular momentum in pseudopotentials (lmaxx) =  4

     IMPORTANT: XC functional enforced from input :
     Exchange-correlation= PBE
                           (   1   4   3   4   0   0   0)
     Any further DFT definition will be discarded
     Please, verify this is what you really want


     gamma-point specific algorithms are used
 
     K-points division:     npool     =       2
     R & G space division:  proc/nbgrp/npool/nimage =       2
     Subspace diagonalization in iterative solution of the eigenvalue problem:
     a serial algorithm will be used

     Message from routine divide_et_impera:
     suboptimal parallelization: some nodes have no k-points
 
     Parallelization info
     --------------------
     sticks:   dense  smooth     PW     G-vecs:    dense   smooth      PW
     Min        2173    2173    572               104684   104684   14204
     Max        2176    2176    573               104685   104685   14205
     Sum        4349    4349   1145               209369   209369   28409
 
     Using Slab Decomposition
 


     bravais-lattice index     =            0
     lattice parameter (alat)  =      21.3155  a.u.
     unit-cell volume          =    9431.7697 (a.u.)^3
     number of atoms/cell      =           64
     number of atomic types    =            1
     number of electrons       =       256.00
     number of Kohn-Sham states=          128
     kinetic-energy cutoff     =      30.0000  Ry
     charge density cutoff     =     120.0000  Ry
     scf convergence threshold =      1.0E-06
     mixing beta               =       0.5000
     number of iterations used =            8  plain     mixing
     Exchange-correlation= PBE
                           (   1   4   3   4   0   0   0)

     GPU acceleration is ACTIVE.
     GPU-aware MPI enabled

     Message from routine print_cuda_info:
     High GPU oversubscription detected. Are you sure this is what you want?

     celldm(1)=  21.315548  celldm(2)=   0.000000  celldm(3)=   0.000000
     celldm(4)=   0.000000  celldm(5)=   0.000000  celldm(6)=   0.000000

     crystal axes: (cart. coord. in units of alat)
               a(1) = (   1.000000   0.000000   0.000000 )  
               a(2) = (   0.000000   1.000983   0.000000 )  
               a(3) = (   0.000000   0.000000   0.972919 )  

     reciprocal axes: (cart. coord. in units 2 pi/alat)
               b(1) = (  1.000000  0.000000  0.000000 )  
               b(2) = (  0.000000  0.999018  0.000000 )  
               b(3) = (  0.000000  0.000000  1.027835 )  


     PseudoPot. # 1 for Si read from file:
     /home/ppiaggi/pseudos/Si_ONCV_PBE_sr.upf
     MD5 check sum: 8553c464762ac42b85b1eed164b4d029
     Pseudo is Norm-conserving, Zval =  4.0
     Generated using ONCVPSP code by D. R. Hamann
     Using radial grid of 1510 points,  4 beta functions with: 
                l(1) =   0
                l(2) =   0
                l(3) =   1
                l(4) =   1

     atomic species   valence    mass     pseudopotential
        Si             4.00    28.08500     Si( 1.00)

     No symmetry found



   Cartesian axes

     site n.     atom                  positions (alat units)
         1           Si  tau(   1) = (  -0.0043652   0.0067770  -0.0044471  )
         2           Si  tau(   2) = (   0.0039866   0.2492342   0.2451145  )
         3           Si  tau(   3) = (   0.2356966  -0.0071476   0.2377072  )
         4           Si  tau(   4) = (   0.2471383   0.2446787   0.0074927  )
         5           Si  tau(   5) = (   0.1155938   0.1189346   0.1176269  )
         6           Si  tau(   6) = (   0.4903577   0.0018564   0.0063590  )
         7           Si  tau(   7) = (   0.4808336   0.2583727   0.2361277  )
         8           Si  tau(   8) = (   0.6089829   0.1188478   0.1256328  )
         9           Si  tau(   9) = (   0.7341182  -0.0023581   0.2415038  )
        10           Si  tau(  10) = (   0.7322669   0.2609703   0.0048265  )
        11           Si  tau(  11) = (   0.0062668   0.4962697  -0.0018213  )
        12           Si  tau(  12) = (   0.2395046   0.5078973   0.2368878  )
        13           Si  tau(  13) = (   0.1241354   0.6386663   0.1211353  )
        14           Si  tau(  14) = (   0.3692114   0.3762614   0.1187164  )
        15           Si  tau(  15) = (   0.4913711   0.4963888  -0.0059181  )
        16           Si  tau(  16) = (   0.6089326   0.6392154   0.1218057  )
        17           Si  tau(  17) = (   0.8606836   0.3750301   0.1130362  )
        18           Si  tau(  18) = (   0.7353612   0.5048774   0.2386207  )
        19           Si  tau(  19) = (  -0.0081201   0.7630200   0.2435832  )
        20           Si  tau(  20) = (   0.2499736   0.7601312  -0.0043432  )
        21           Si  tau(  21) = (   0.3710021   0.8786746   0.1269275  )
        22           Si  tau(  22) = (   0.4800295   0.7510567   0.2402273  )
        23           Si  tau(  23) = (   0.7348759   0.7550652   0.0016248  )
        24           Si  tau(  24) = (   0.8577416   0.8759936   0.1140899  )
        25           Si  tau(  25) = (   0.0072821  -0.0069251   0.4773862  )
        26           Si  tau(  26) = (   0.2357290   0.2599810   0.4837924  )
        27           Si  tau(  27) = (   0.1137296   0.1174715   0.5955254  )
        28           Si  tau(  28) = (   0.3669345   0.1220524   0.3543824  )
        29           Si  tau(  29) = (   0.4875163   0.0027349   0.4706936  )
        30           Si  tau(  30) = (   0.6142404   0.1209253   0.6025543  )
        31           Si  tau(  31) = (   0.8569338   0.1210006   0.3496761  )
        32           Si  tau(  32) = (   0.7383256   0.2544653   0.4679299  )
        33           Si  tau(  33) = (   0.1162320   0.3775462   0.3646339  )
        34           Si  tau(  34) = (  -0.0044153   0.5129635   0.4782199  )
        35           Si  tau(  35) = (   0.1207037   0.6314351   0.5874322  )
        36           Si  tau(  36) = (   0.6098421   0.3785591   0.3615951  )
        37           Si  tau(  37) = (   0.3683092   0.6257916   0.3501084  )
        38           Si  tau(  38) = (   0.3607308   0.3756543   0.5872118  )
        39           Si  tau(  39) = (   0.4942270   0.5123717   0.4798140  )
        40           Si  tau(  40) = (   0.6066276   0.6373605   0.5924504  )
        41           Si  tau(  41) = (   0.8583151   0.6355556   0.3548264  )
        42           Si  tau(  42) = (   0.8487204   0.3768077   0.5983546  )
        43           Si  tau(  43) = (   0.1228106   0.8800287   0.3635351  )
        44           Si  tau(  44) = (   0.2447424   0.7494621   0.4801185  )
        45           Si  tau(  45) = (   0.6058697   0.8918580   0.3520918  )
        46           Si  tau(  46) = (   0.3665495   0.8775721   0.5895129  )
        47           Si  tau(  47) = (   0.7340166   0.7589305   0.4717219  )
        48           Si  tau(  48) = (   0.8451221   0.8806976   0.5927662  )
        49           Si  tau(  49) = (  -0.0001149   0.2536827   0.7143512  )
        50           Si  tau(  50) = (   0.2387238  -0.0068194   0.7101285  )
        51           Si  tau(  51) = (   0.3635628   0.1253454   0.8366517  )
        52           Si  tau(  52) = (   0.4800643   0.2572606   0.7157608  )
        53           Si  tau(  53) = (   0.7377369   0.0000909   0.7061522  )
        54           Si  tau(  54) = (   0.8607155   0.1252395   0.8363569  )
        55           Si  tau(  55) = (   0.1291483   0.3749513   0.8369725  )
        56           Si  tau(  56) = (   0.2449989   0.5117727   0.7134047  )
        57           Si  tau(  57) = (   0.6144731   0.3711375   0.8268407  )
        58           Si  tau(  58) = (   0.3684451   0.6341261   0.8304961  )
        59           Si  tau(  59) = (   0.7317817   0.5056522   0.7150783  )
        60           Si  tau(  60) = (   0.8540328   0.6235996   0.8288113  )
        61           Si  tau(  61) = (   0.0022205   0.7575677   0.7170055  )
        62           Si  tau(  62) = (   0.1132418   0.8914808   0.8248506  )
        63           Si  tau(  63) = (   0.4836876   0.7536880   0.7059567  )
        64           Si  tau(  64) = (   0.6040849   0.8902311   0.8239755  )

     number of k points=     1
                       cart. coord. in units 2pi/alat
        k(    1) = (   0.0000000   0.0000000   0.0000000), wk =   2.0000000

     Dense  grid:   104685 G-vectors     FFT dimensions: (  75,  75,  75)

     Estimated max dynamical RAM per process >     153.71 MB

     Estimated total dynamical RAM >     589.27 MB

     Initial potential from superposition of free atoms

     starting charge     255.9608, renormalised to     256.0000
     Starting wfcs are  256 randomized atomic wfcs

     total cpu time spent up to now is        4.8 secs

     Self-consistent Calculation

     iteration #  1     ecut=    30.00 Ry     beta= 0.50
     Davidson diagonalization with overlap
     ethr =  1.00E-02,  avg # of iterations =  2.0

     Threshold (ethr) on eigenvalues was too large:
     Diagonalizing with lowered threshold

     Davidson diagonalization with overlap
     ethr =  5.96E-04,  avg # of iterations =  2.0

     total cpu time spent up to now is        5.0 secs

     total energy              =    -503.39688772 Ry
     estimated scf accuracy    <       1.71097949 Ry

     iteration #  2     ecut=    30.00 Ry     beta= 0.50
     Davidson diagonalization with overlap
     ethr =  6.68E-04,  avg # of iterations =  1.0

     total cpu time spent up to now is        5.1 secs

     total energy              =    -503.37892814 Ry
     estimated scf accuracy    <       0.34076791 Ry

     iteration #  3     ecut=    30.00 Ry     beta= 0.50
     Davidson diagonalization with overlap
     ethr =  1.33E-04,  avg # of iterations =  2.0

     total cpu time spent up to now is        5.2 secs

     total energy              =    -503.40279000 Ry
     estimated scf accuracy    <       0.00664704 Ry

     iteration #  4     ecut=    30.00 Ry     beta= 0.50
     Davidson diagonalization with overlap
     ethr =  2.60E-06,  avg # of iterations = 18.0

     total cpu time spent up to now is        5.4 secs

     total energy              =    -503.41406087 Ry
     estimated scf accuracy    <       0.01402267 Ry

     iteration #  5     ecut=    30.00 Ry     beta= 0.50
     Davidson diagonalization with overlap
     ethr =  2.60E-06,  avg # of iterations = 11.0

     total cpu time spent up to now is        5.6 secs

     total energy              =    -503.41329916 Ry
     estimated scf accuracy    <       0.00482208 Ry

     iteration #  6     ecut=    30.00 Ry     beta= 0.50
     Davidson diagonalization with overlap
     ethr =  1.88E-06,  avg # of iterations =  7.0

     total cpu time spent up to now is        5.7 secs

     total energy              =    -503.41316936 Ry
     estimated scf accuracy    <       0.00234712 Ry

     iteration #  7     ecut=    30.00 Ry     beta= 0.50
     Davidson diagonalization with overlap
     ethr =  9.17E-07,  avg # of iterations = 16.0

     total cpu time spent up to now is        5.9 secs

     total energy              =    -503.41365929 Ry
     estimated scf accuracy    <       0.00031793 Ry

     iteration #  8     ecut=    30.00 Ry     beta= 0.50
     Davidson diagonalization with overlap
     ethr =  1.24E-07,  avg # of iterations = 15.0

     total cpu time spent up to now is        6.1 secs

     total energy              =    -503.41369873 Ry
     estimated scf accuracy    <       0.00009599 Ry

     iteration #  9     ecut=    30.00 Ry     beta= 0.50
     Davidson diagonalization with overlap
     ethr =  3.75E-08,  avg # of iterations = 13.0

     total cpu time spent up to now is        6.2 secs

     total energy              =    -503.41371014 Ry
     estimated scf accuracy    <       0.00000978 Ry

     iteration # 10     ecut=    30.00 Ry     beta= 0.50
     Davidson diagonalization with overlap
     ethr =  3.82E-09,  avg # of iterations = 17.0

     total cpu time spent up to now is        6.4 secs

     total energy              =    -503.41371422 Ry
     estimated scf accuracy    <       0.00000750 Ry

     iteration # 11     ecut=    30.00 Ry     beta= 0.50
     Davidson diagonalization with overlap
     ethr =  2.93E-09,  avg # of iterations =  3.0

     total cpu time spent up to now is        6.5 secs

     total energy              =    -503.41371391 Ry
     estimated scf accuracy    <       0.00000379 Ry

     iteration # 12     ecut=    30.00 Ry     beta= 0.50
     Davidson diagonalization with overlap
     ethr =  1.48E-09,  avg # of iterations = 11.0

     total cpu time spent up to now is        6.7 secs

     End of self-consistent calculation

          k = 0.0000 0.0000 0.0000 ( 13089 PWs)   bands (ev):

    -6.1763  -5.2951  -5.2621  -5.2116  -5.1520  -4.9942  -4.8687  -4.5130
    -4.4677  -4.4180  -4.3848  -4.3560  -4.2167  -4.1673  -4.1579  -4.0960
    -4.0710  -4.0039  -3.9712  -3.9218  -3.7959  -3.7380  -3.4071  -2.6097
    -2.4307  -2.4030  -2.3533  -2.3502  -2.2548  -2.2307  -2.1784  -2.1582
    -2.1152  -2.0390  -1.9807  -1.9544  -1.9217  -1.8447  -1.7844  -1.7023
    -1.6936  -1.4484  -1.2415  -1.1643  -1.0874  -0.2398  -0.1741  -0.1095
    -0.0952  -0.0498   0.0151   0.0468   0.1204   0.1268   0.1865   0.2178
     0.2967   1.4910   1.5294   1.5387   1.5651   1.5925   1.6054   1.6185
     1.6457   1.6707   1.6937   1.7031   1.7414   1.7635   1.7805   1.8279
     1.8769   1.8945   1.9087   1.9341   2.0131   2.0281   2.0577   2.0817
     2.1398   2.2010   2.2617   2.2744   2.3129   2.3608   2.3784   2.5441
     2.6074   2.7417   2.7587   2.8558   2.9205   3.3347   3.3830   3.5089
     3.5157   3.5729   3.6305   3.6499   3.6681   3.7497   3.7642   3.8019
     3.8578   3.8748   3.8962   3.9329   3.9837   3.9925   4.0347   4.0772
     4.1018   4.1393   4.2337   4.2526   4.2694   4.2885   4.2973   4.3555
     4.4348   4.5754   4.6718   4.9376   5.0189   5.1821   5.5478   5.7321

     highest occupied level (ev):     5.7321

!    total energy              =    -503.41371422 Ry
     estimated scf accuracy    <       0.00000036 Ry

     The total energy is the sum of the following terms:
     one-electron contribution =     125.76388122 Ry
     hartree contribution      =      41.02024273 Ry
     xc contribution           =    -151.55505951 Ry
     ewald contribution        =    -518.64277866 Ry

     convergence has been achieved in  12 iterations

     Forces acting on atoms (cartesian axes, Ry/au):

     atom    1 type  1   force =    -0.05430660   -0.02542040   -0.04765811
     atom    2 type  1   force =    -0.07325994   -0.01138554   -0.03389984
     atom    3 type  1   force =     0.02963018    0.03484388   -0.00208271
     atom    4 type  1   force =    -0.00930381    0.00464630   -0.06428165
     atom    5 type  1   force =     0.01898148    0.03051736    0.01965598
     atom    6 type  1   force =    -0.00760872   -0.00275144   -0.07629891
     atom    7 type  1   force =     0.04817045   -0.04561179    0.03449614
     atom    8 type  1   force =     0.01478450    0.06943048   -0.00886644
     atom    9 type  1   force =     0.02262708    0.00792327   -0.04950218
     atom   10 type  1   force =    -0.01290650   -0.06522895   -0.06797712
     atom   11 type  1   force =    -0.03734297    0.01320164   -0.02670287
     atom   12 type  1   force =     0.00496492   -0.03800859   -0.00247005
     atom   13 type  1   force =    -0.03072226   -0.00613500   -0.02062855
     atom   14 type  1   force =    -0.04363390    0.03546617   -0.02020549
     atom   15 type  1   force =     0.01520740    0.03078460   -0.03622541
     atom   16 type  1   force =     0.00279431   -0.05063519   -0.01694366
     atom   17 type  1   force =     0.05681855    0.03388110    0.04114904
     atom   18 type  1   force =     0.00196914   -0.00309696   -0.01370846
     atom   19 type  1   force =    -0.01390593   -0.01555895   -0.02272815
     atom   20 type  1   force =    -0.01502868    0.00433967   -0.03962894
     atom   21 type  1   force =    -0.03624019    0.00064074   -0.04342324
     atom   22 type  1   force =     0.05422920    0.03190756    0.00047369
     atom   23 type  1   force =    -0.01006783   -0.00598893   -0.08474458
     atom   24 type  1   force =     0.04369600    0.02491883    0.01506697
     atom   25 type  1   force =    -0.11486255    0.02407923    0.01128416
     atom   26 type  1   force =     0.00197372   -0.07977901   -0.03198896
     atom   27 type  1   force =     0.02286054    0.05634068    0.01643370
     atom   28 type  1   force =    -0.05102072    0.04378881   -0.00258437
     atom   29 type  1   force =     0.00589350    0.02224678    0.04773874
     atom   30 type  1   force =    -0.03387873    0.06215433   -0.04960245
     atom   31 type  1   force =     0.06748771    0.02378971    0.02894996
     atom   32 type  1   force =    -0.01095175   -0.03553216    0.03628495
     atom   33 type  1   force =     0.00035747    0.03911967   -0.02129138
     atom   34 type  1   force =    -0.06502880   -0.03679427   -0.00906572
     atom   35 type  1   force =    -0.01102444    0.00201730    0.05924237
     atom   36 type  1   force =     0.00045146    0.01479183   -0.02933643
     atom   37 type  1   force =    -0.02731825   -0.01061961    0.04955843
     atom   38 type  1   force =     0.03135220    0.06292972    0.04617189
     atom   39 type  1   force =    -0.03207124   -0.04957280   -0.02530965
     atom   40 type  1   force =     0.04940595   -0.00861004    0.01400396
     atom   41 type  1   force =     0.03393410   -0.01536533    0.00174275
     atom   42 type  1   force =     0.07608135    0.01220226   -0.01189854
     atom   43 type  1   force =     0.00376207   -0.05476604   -0.02170104
     atom   44 type  1   force =     0.01855215    0.01162264   -0.04510116
     atom   45 type  1   force =     0.00293287   -0.08733958    0.00751921
     atom   46 type  1   force =    -0.01194431    0.00254471   -0.00043191
     atom   47 type  1   force =    -0.02816251   -0.00133933   -0.01022518
     atom   48 type  1   force =     0.12165390   -0.03436649   -0.01104945
     atom   49 type  1   force =    -0.05082693   -0.00975713    0.01308518
     atom   50 type  1   force =     0.04413876    0.05259388   -0.00524413
     atom   51 type  1   force =    -0.00872916   -0.00823310    0.04173168
     atom   52 type  1   force =     0.02247212   -0.03895200   -0.01002310
     atom   53 type  1   force =    -0.00293646    0.03089473    0.07362692
     atom   54 type  1   force =     0.01820338    0.02832298    0.02868890
     atom   55 type  1   force =    -0.00592918    0.00406446    0.02952065
     atom   56 type  1   force =    -0.00666737   -0.03454083   -0.00467035
     atom   57 type  1   force =    -0.01006511    0.02603233    0.06811870
     atom   58 type  1   force =    -0.00644763   -0.01856894    0.05959408
     atom   59 type  1   force =    -0.01995614   -0.00656090   -0.02066710
     atom   60 type  1   force =     0.06301012    0.03317756    0.06880004
     atom   61 type  1   force =    -0.08379417   -0.02355460   -0.02776475
     atom   62 type  1   force =     0.00029352   -0.04085821    0.09911048
     atom   63 type  1   force =     0.01552246    0.03090431    0.03816361
     atom   64 type  1   force =     0.01173021   -0.04118744    0.06571987

     Total force =     0.526282     Total SCF correction =     0.000752


     Computing stress (Cartesian axis) and pressure

          total   stress  (Ry/bohr**3)                   (kbar)     P=      -32.53
  -0.00024985   0.00006923   0.00001771          -36.75       10.18        2.61
   0.00006923  -0.00025905   0.00004154           10.18      -38.11        6.11
   0.00001771   0.00004154  -0.00015451            2.61        6.11      -22.73

 
     init_run     :      1.01s CPU      4.68s WALL (       1 calls)
     electrons    :      1.81s CPU      1.93s WALL (       1 calls)
     forces       :      0.04s CPU      0.05s WALL (       1 calls)
     stress       :      0.15s CPU      0.15s WALL (       1 calls)

     Called by init_run:
     wfcinit      :      0.59s CPU      4.09s WALL (       1 calls)
                                        4.09s GPU  (       1 calls)
     potinit      :      0.21s CPU      0.29s WALL (       1 calls)
     hinit0       :      0.19s CPU      0.22s WALL (       1 calls)

     Called by electrons:
     c_bands      :      1.26s CPU      1.31s WALL (      13 calls)
     sum_band     :      0.29s CPU      0.32s WALL (      13 calls)
     v_of_rho     :      0.14s CPU      0.23s WALL (      13 calls)
     mix_rho      :      0.12s CPU      0.13s WALL (      13 calls)

     Called by c_bands:
     init_us_2    :      0.05s CPU      0.05s WALL (      27 calls)
     init_us_2:gp :      0.05s CPU      0.05s WALL (      27 calls)
     regterg      :      1.14s CPU      1.18s WALL (      13 calls)

     Called by *egterg:
     rdiaghg      :      0.51s CPU      1.22s WALL (     130 calls)
                                        1.20s GPU  (     130 calls)
     h_psi        :      1.04s CPU      3.85s WALL (     132 calls)
                                        3.85s GPU  (     132 calls)
     g_psi        :      0.00s CPU      0.00s WALL (     118 calls)
                                        0.00s GPU  (     118 calls)

     Called by h_psi:
     h_psi:calbec :      0.52s CPU      3.25s WALL (     132 calls)
                                        3.25s GPU  (     132 calls)
     vloc_psi     :      0.43s CPU      0.51s WALL (     132 calls)
                                        0.51s GPU  (     132 calls)
     add_vuspsi   :      0.06s CPU      0.08s WALL (     132 calls)
                                        0.08s GPU  (     132 calls)

     General routines
     calbec       :      0.53s CPU      3.25s WALL (     137 calls)
     fft          :      0.28s CPU      0.40s WALL (     111 calls)
                                        0.11s GPU  (      71 calls)
     ffts         :      0.05s CPU      0.05s WALL (      13 calls)
     fftw         :      0.45s CPU      0.62s WALL (    1306 calls)
                                        0.56s GPU  (    1306 calls)
 
     Parallel routines
 
     PWSCF        :      3.05s CPU      6.91s WALL

 
   This run was terminated on:  15:24: 8   8May2023            

=------------------------------------------------------------------------------=
   JOB DONE.
=------------------------------------------------------------------------------=
