An instance of this daemon is already running

     Program PWSCF v.7.1 starts on  8May2023 at 15:22:51 

     This program is part of the open-source Quantum ESPRESSO suite
     for quantum simulation of materials; please cite
         "P. Giannozzi et al., J. Phys.:Condens. Matter 21 395502 (2009);
         "P. Giannozzi et al., J. Phys.:Condens. Matter 29 465901 (2017);
         "P. Giannozzi et al., J. Chem. Phys. 152 154105 (2020);
          URL http://www.quantum-espresso.org", 
     in publications or presentations arising from this work. More details at
     http://www.quantum-espresso.org/quote

     Parallel version (MPI & OpenMP), running on       4 processor cores
     Number of MPI processes:                 4
     Threads/MPI process:                     1

     MPI processes distributed on     1 nodes
     618693 MiB available memory on the printing compute node when the environment starts
 
     Reading input from pw-si-5.in
Warning: card &CELL ignored
Warning: card / ignored

     Current dimensions of program PWSCF are:
     Max number of different atomic species (ntypx) = 10
     Max number of k-points (npk) =  40000
     Max angular momentum in pseudopotentials (lmaxx) =  4

     IMPORTANT: XC functional enforced from input :
     Exchange-correlation= PBE
                           (   1   4   3   4   0   0   0)
     Any further DFT definition will be discarded
     Please, verify this is what you really want


     gamma-point specific algorithms are used
 
     K-points division:     npool     =       2
     R & G space division:  proc/nbgrp/npool/nimage =       2
     Subspace diagonalization in iterative solution of the eigenvalue problem:
     a serial algorithm will be used

     Message from routine divide_et_impera:
     suboptimal parallelization: some nodes have no k-points
 
     Parallelization info
     --------------------
     sticks:   dense  smooth     PW     G-vecs:    dense   smooth      PW
     Min        2076    2076    547               102448   102448   13909
     Max        2077    2077    550               102451   102451   13910
     Sum        4153    4153   1097               204899   204899   27819
 
     Using Slab Decomposition
 


     bravais-lattice index     =            0
     lattice parameter (alat)  =      20.8712  a.u.
     unit-cell volume          =    9231.9921 (a.u.)^3
     number of atoms/cell      =           64
     number of atomic types    =            1
     number of electrons       =       256.00
     number of Kohn-Sham states=          128
     kinetic-energy cutoff     =      30.0000  Ry
     charge density cutoff     =     120.0000  Ry
     scf convergence threshold =      1.0E-06
     mixing beta               =       0.5000
     number of iterations used =            8  plain     mixing
     Exchange-correlation= PBE
                           (   1   4   3   4   0   0   0)

     GPU acceleration is ACTIVE.
     GPU-aware MPI enabled

     Message from routine print_cuda_info:
     High GPU oversubscription detected. Are you sure this is what you want?

     celldm(1)=  20.871151  celldm(2)=   0.000000  celldm(3)=   0.000000
     celldm(4)=   0.000000  celldm(5)=   0.000000  celldm(6)=   0.000000

     crystal axes: (cart. coord. in units of alat)
               a(1) = (   1.000000   0.000000   0.000000 )  
               a(2) = (   0.000000   0.996291   0.000000 )  
               a(3) = (   0.000000   0.000000   1.019225 )  

     reciprocal axes: (cart. coord. in units 2 pi/alat)
               b(1) = (  1.000000  0.000000  0.000000 )  
               b(2) = (  0.000000  1.003723  0.000000 )  
               b(3) = (  0.000000  0.000000  0.981138 )  


     PseudoPot. # 1 for Si read from file:
     /home/ppiaggi/pseudos/Si_ONCV_PBE_sr.upf
     MD5 check sum: 8553c464762ac42b85b1eed164b4d029
     Pseudo is Norm-conserving, Zval =  4.0
     Generated using ONCVPSP code by D. R. Hamann
     Using radial grid of 1510 points,  4 beta functions with: 
                l(1) =   0
                l(2) =   0
                l(3) =   1
                l(4) =   1

     atomic species   valence    mass     pseudopotential
        Si             4.00    28.08500     Si( 1.00)

     No symmetry found



   Cartesian axes

     site n.     atom                  positions (alat units)
         1           Si  tau(   1) = (   0.0011149  -0.0042824  -0.0007042  )
         2           Si  tau(   2) = (   0.0067701   0.2516885   0.2650809  )
         3           Si  tau(   3) = (   0.2465303  -0.0012029   0.2558823  )
         4           Si  tau(   4) = (   0.2543765   0.2491846   0.0071354  )
         5           Si  tau(   5) = (   0.1193372   0.1243013   0.1292413  )
         6           Si  tau(   6) = (   0.5138138  -0.0036120  -0.0049548  )
         7           Si  tau(   7) = (   0.5120886   0.2542817   0.2583903  )
         8           Si  tau(   8) = (   0.6374179   0.1204862   0.1303098  )
         9           Si  tau(   9) = (   0.7578366   0.0055271   0.2538947  )
        10           Si  tau(  10) = (   0.7662652   0.2503056   0.0006200  )
        11           Si  tau(  11) = (  -0.0086283   0.5021416  -0.0000708  )
        12           Si  tau(  12) = (   0.2588585   0.4997585   0.2516366  )
        13           Si  tau(  13) = (   0.1329715   0.6102694   0.1362852  )
        14           Si  tau(  14) = (   0.3858240   0.3654054   0.1299117  )
        15           Si  tau(  15) = (   0.5194357   0.4949382   0.0064641  )
        16           Si  tau(  16) = (   0.6326645   0.6212094   0.1326235  )
        17           Si  tau(  17) = (   0.8990795   0.3652477   0.1227026  )
        18           Si  tau(  18) = (   0.7719926   0.5032796   0.2510448  )
        19           Si  tau(  19) = (   0.0077812   0.7483691   0.2524470  )
        20           Si  tau(  20) = (   0.2622848   0.7384617  -0.0086707  )
        21           Si  tau(  21) = (   0.3893802   0.8700541   0.1303292  )
        22           Si  tau(  22) = (   0.5041688   0.7410589   0.2669656  )
        23           Si  tau(  23) = (   0.7671750   0.7328027   0.0010512  )
        24           Si  tau(  24) = (   0.8997695   0.8651926   0.1312984  )
        25           Si  tau(  25) = (  -0.0073260   0.0006687   0.5162791  )
        26           Si  tau(  26) = (   0.2566597   0.2553271   0.5182142  )
        27           Si  tau(  27) = (   0.1307485   0.1165969   0.6570928  )
        28           Si  tau(  28) = (   0.3777112   0.1288977   0.3861295  )
        29           Si  tau(  29) = (   0.5033123  -0.0010960   0.5178655  )
        30           Si  tau(  30) = (   0.6428858   0.1246945   0.6434276  )
        31           Si  tau(  31) = (   0.8863041   0.1310247   0.3944640  )
        32           Si  tau(  32) = (   0.7700543   0.2533545   0.5164072  )
        33           Si  tau(  33) = (   0.1355646   0.3760973   0.3844374  )
        34           Si  tau(  34) = (  -0.0010996   0.5011265   0.5145893  )
        35           Si  tau(  35) = (   0.1326278   0.6135779   0.6468809  )
        36           Si  tau(  36) = (   0.6467805   0.3786423   0.3948515  )
        37           Si  tau(  37) = (   0.3843599   0.6104930   0.3834800  )
        38           Si  tau(  38) = (   0.3797342   0.3721078   0.6528482  )
        39           Si  tau(  39) = (   0.5032939   0.4915240   0.5171376  )
        40           Si  tau(  40) = (   0.6324717   0.6195776   0.6573720  )
        41           Si  tau(  41) = (   0.9038625   0.6171199   0.3975372  )
        42           Si  tau(  42) = (   0.8993532   0.3784699   0.6450748  )
        43           Si  tau(  43) = (   0.1334401   0.8566758   0.3803461  )
        44           Si  tau(  44) = (   0.2491992   0.7503079   0.5169638  )
        45           Si  tau(  45) = (   0.6461813   0.8644665   0.3949157  )
        46           Si  tau(  46) = (   0.3928285   0.8663098   0.6421604  )
        47           Si  tau(  47) = (   0.7681082   0.7357053   0.5175959  )
        48           Si  tau(  48) = (   0.8929626   0.8620479   0.6518427  )
        49           Si  tau(  49) = (   0.0021774   0.2427268   0.7698861  )
        50           Si  tau(  50) = (   0.2474191   0.0069998   0.7736813  )
        51           Si  tau(  51) = (   0.3874140   0.1275828   0.9152384  )
        52           Si  tau(  52) = (   0.5131851   0.2544938   0.7804924  )
        53           Si  tau(  53) = (   0.7610886  -0.0071653   0.7794894  )
        54           Si  tau(  54) = (   0.8894838   0.1315245   0.9090035  )
        55           Si  tau(  55) = (   0.1254275   0.3763388   0.9061593  )
        56           Si  tau(  56) = (   0.2574132   0.4976790   0.7738725  )
        57           Si  tau(  57) = (   0.6451749   0.3623314   0.8998341  )
        58           Si  tau(  58) = (   0.3748290   0.6149974   0.9139344  )
        59           Si  tau(  59) = (   0.7603336   0.4916639   0.7825120  )
        60           Si  tau(  60) = (   0.8886373   0.6144634   0.9169264  )
        61           Si  tau(  61) = (  -0.0080071   0.7499385   0.7793178  )
        62           Si  tau(  62) = (   0.1297398   0.8707001   0.9125766  )
        63           Si  tau(  63) = (   0.5102710   0.7390022   0.7824511  )
        64           Si  tau(  64) = (   0.6302553   0.8626039   0.9072536  )

     number of k points=     1
                       cart. coord. in units 2pi/alat
        k(    1) = (   0.0000000   0.0000000   0.0000000), wk =   2.0000000

     Dense  grid:   102450 G-vectors     FFT dimensions: (  75,  75,  75)

     Estimated max dynamical RAM per process >     150.80 MB

     Estimated total dynamical RAM >     578.18 MB

     Initial potential from superposition of free atoms

     starting charge     255.9608, renormalised to     256.0000
     Starting wfcs are  256 randomized atomic wfcs

     total cpu time spent up to now is        5.0 secs

     Self-consistent Calculation

     iteration #  1     ecut=    30.00 Ry     beta= 0.50
     Davidson diagonalization with overlap
     ethr =  1.00E-02,  avg # of iterations =  2.0

     Threshold (ethr) on eigenvalues was too large:
     Diagonalizing with lowered threshold

     Davidson diagonalization with overlap
     ethr =  6.22E-04,  avg # of iterations =  2.0

     total cpu time spent up to now is        5.2 secs

     total energy              =    -503.36123225 Ry
     estimated scf accuracy    <       1.78875026 Ry

     iteration #  2     ecut=    30.00 Ry     beta= 0.50
     Davidson diagonalization with overlap
     ethr =  6.99E-04,  avg # of iterations =  1.0

     total cpu time spent up to now is        5.3 secs

     total energy              =    -503.34522739 Ry
     estimated scf accuracy    <       0.34941105 Ry

     iteration #  3     ecut=    30.00 Ry     beta= 0.50
     Davidson diagonalization with overlap
     ethr =  1.36E-04,  avg # of iterations =  2.0

     total cpu time spent up to now is        5.4 secs

     total energy              =    -503.37096144 Ry
     estimated scf accuracy    <       0.00766058 Ry

     iteration #  4     ecut=    30.00 Ry     beta= 0.50
     Davidson diagonalization with overlap
     ethr =  2.99E-06,  avg # of iterations = 18.0

     total cpu time spent up to now is        5.6 secs

     total energy              =    -503.37924109 Ry
     estimated scf accuracy    <       0.01901927 Ry

     iteration #  5     ecut=    30.00 Ry     beta= 0.50
     Davidson diagonalization with overlap
     ethr =  2.99E-06,  avg # of iterations = 17.0

     total cpu time spent up to now is        5.8 secs

     total energy              =    -503.37870977 Ry
     estimated scf accuracy    <       0.00586477 Ry

     iteration #  6     ecut=    30.00 Ry     beta= 0.50
     Davidson diagonalization with overlap
     ethr =  2.29E-06,  avg # of iterations = 14.0

     total cpu time spent up to now is        6.0 secs

     total energy              =    -503.37857696 Ry
     estimated scf accuracy    <       0.00557466 Ry

     iteration #  7     ecut=    30.00 Ry     beta= 0.50
     Davidson diagonalization with overlap
     c_bands:  1 eigenvalues not converged
     ethr =  2.18E-06,  avg # of iterations = 20.0

     total cpu time spent up to now is        6.2 secs

     total energy              =    -503.37891788 Ry
     estimated scf accuracy    <       0.00049739 Ry

     iteration #  8     ecut=    30.00 Ry     beta= 0.50
     Davidson diagonalization with overlap
     ethr =  1.94E-07,  avg # of iterations = 18.0

     total cpu time spent up to now is        6.4 secs

     total energy              =    -503.37909028 Ry
     estimated scf accuracy    <       0.00022226 Ry

     iteration #  9     ecut=    30.00 Ry     beta= 0.50
     Davidson diagonalization with overlap
     ethr =  8.68E-08,  avg # of iterations =  5.0

     total cpu time spent up to now is        6.5 secs

     total energy              =    -503.37908820 Ry
     estimated scf accuracy    <       0.00007382 Ry

     iteration # 10     ecut=    30.00 Ry     beta= 0.50
     Davidson diagonalization with overlap
     c_bands:  1 eigenvalues not converged
     ethr =  2.88E-08,  avg # of iterations = 20.0

     total cpu time spent up to now is        6.7 secs

     total energy              =    -503.37910210 Ry
     estimated scf accuracy    <       0.00001087 Ry

     iteration # 11     ecut=    30.00 Ry     beta= 0.50
     Davidson diagonalization with overlap
     c_bands:  1 eigenvalues not converged
     ethr =  4.25E-09,  avg # of iterations = 20.0

     total cpu time spent up to now is        6.9 secs

     total energy              =    -503.37910324 Ry
     estimated scf accuracy    <       0.00000569 Ry

     iteration # 12     ecut=    30.00 Ry     beta= 0.50
     Davidson diagonalization with overlap
     ethr =  2.22E-09,  avg # of iterations =  4.0

     total cpu time spent up to now is        7.0 secs

     total energy              =    -503.37910323 Ry
     estimated scf accuracy    <       0.00000142 Ry

     iteration # 13     ecut=    30.00 Ry     beta= 0.50
     Davidson diagonalization with overlap
     c_bands:  1 eigenvalues not converged
     ethr =  5.55E-10,  avg # of iterations = 20.0

     total cpu time spent up to now is        7.2 secs

     End of self-consistent calculation

          k = 0.0000 0.0000 0.0000 ( 12811 PWs)   bands (ev):

    -6.1136  -5.2343  -5.1652  -5.0995  -5.0372  -4.9567  -4.8480  -4.5013
    -4.3531  -4.3239  -4.1626  -4.1430  -4.1299  -4.0684  -3.9765  -3.9554
    -3.9132  -3.8744  -3.8339  -3.7568  -3.6283  -3.5940  -3.5328  -2.5895
    -2.3602  -2.2648  -2.2091  -2.1598  -2.1042  -2.0669  -2.0332  -2.0094
    -1.9521  -1.8900  -1.8295  -1.7734  -1.7527  -1.6573  -1.6276  -1.5782
    -1.4809  -1.3843  -1.0827  -1.0208  -0.8406  -0.1145  -0.0626  -0.0044
     0.0386   0.0986   0.1296   0.2261   0.2511   0.3605   0.3969   0.4714
     0.5322   1.5677   1.6165   1.6559   1.6695   1.7016   1.7435   1.8241
     1.8904   1.8938   1.9541   1.9587   1.9731   2.0058   2.0067   2.0241
     2.0677   2.0751   2.1160   2.1470   2.1695   2.2035   2.2254   2.2351
     2.2639   2.2890   2.3108   2.3196   2.3505   2.3803   2.3918   2.6736
     2.8042   2.8281   2.9040   2.9803   3.0580   3.4989   3.5531   3.6359
     3.6654   3.7444   3.7769   3.7970   3.8488   3.9293   3.9382   3.9558
     4.0060   4.0402   4.0640   4.1575   4.2295   4.3019   4.3347   4.3625
     4.4200   4.4382   4.4545   4.4978   4.5212   4.5457   4.5814   4.6094
     4.6618   4.7264   4.8060   4.8664   4.8854   5.3319   5.7941   5.9327

     highest occupied level (ev):     5.9327

!    total energy              =    -503.37910322 Ry
     estimated scf accuracy    <       0.00000075 Ry

     The total energy is the sum of the following terms:
     one-electron contribution =     131.82361842 Ry
     hartree contribution      =      39.90985478 Ry
     xc contribution           =    -152.26795260 Ry
     ewald contribution        =    -522.84462382 Ry

     convergence has been achieved in  13 iterations

     Forces acting on atoms (cartesian axes, Ry/au):

     atom    1 type  1   force =     0.02878747    0.02078610    0.04668261
     atom    2 type  1   force =     0.02589646   -0.01602454   -0.00821493
     atom    3 type  1   force =     0.03457822   -0.00176675   -0.00117209
     atom    4 type  1   force =    -0.01485009   -0.00408566    0.02391622
     atom    5 type  1   force =     0.02463245   -0.00347428    0.01223099
     atom    6 type  1   force =    -0.01230146    0.00465488    0.08166838
     atom    7 type  1   force =     0.01625999   -0.02812974    0.02903665
     atom    8 type  1   force =    -0.02316932    0.03598219   -0.02367634
     atom    9 type  1   force =     0.04787930   -0.04854095    0.04377050
     atom   10 type  1   force =    -0.01053844   -0.03010696    0.07195724
     atom   11 type  1   force =     0.17434728   -0.10877320    0.11895435
     atom   12 type  1   force =     0.02832050   -0.05592959    0.03015224
     atom   13 type  1   force =    -0.03052222    0.06232294   -0.06381496
     atom   14 type  1   force =     0.00308363    0.03795726   -0.00091059
     atom   15 type  1   force =    -0.03098665   -0.02645147    0.00159247
     atom   16 type  1   force =     0.01805324    0.01538115    0.01717522
     atom   17 type  1   force =    -0.06580109    0.02200692    0.03916889
     atom   18 type  1   force =     0.00082547   -0.02716198    0.03196281
     atom   19 type  1   force =     0.04990191   -0.07354276    0.05144058
     atom   20 type  1   force =    -0.06253157    0.06170561    0.13356427
     atom   21 type  1   force =    -0.02545176   -0.00132881    0.00019255
     atom   22 type  1   force =     0.03772063    0.01847741   -0.01440526
     atom   23 type  1   force =    -0.05489624    0.06855477    0.07816302
     atom   24 type  1   force =    -0.10711023    0.03592010   -0.02864853
     atom   25 type  1   force =     0.07930297   -0.03854530    0.01228858
     atom   26 type  1   force =    -0.01013683   -0.03803427    0.01695574
     atom   27 type  1   force =    -0.04327859    0.05530637   -0.09925231
     atom   28 type  1   force =     0.00699540   -0.01180514   -0.00281142
     atom   29 type  1   force =     0.04536977    0.01672710   -0.02245350
     atom   30 type  1   force =    -0.02570767   -0.00335052    0.01412117
     atom   31 type  1   force =    -0.03256378   -0.01395831   -0.04682850
     atom   32 type  1   force =    -0.01861588    0.00597187    0.03346184
     atom   33 type  1   force =    -0.00769571    0.01397690    0.01823261
     atom   34 type  1   force =     0.13743218   -0.06920170    0.05039010
     atom   35 type  1   force =    -0.02929700    0.05467078   -0.00162946
     atom   36 type  1   force =    -0.01890888    0.00169684   -0.03548541
     atom   37 type  1   force =    -0.03045523    0.04033383    0.03372844
     atom   38 type  1   force =     0.01965992   -0.00064124   -0.01497998
     atom   39 type  1   force =     0.02673521    0.01023257    0.02039036
     atom   40 type  1   force =     0.01209169   -0.01879445   -0.04234304
     atom   41 type  1   force =    -0.11506337    0.08957348   -0.11791561
     atom   42 type  1   force =    -0.07760862   -0.02275278    0.01796629
     atom   43 type  1   force =    -0.02496397    0.07546772    0.01990609
     atom   44 type  1   force =     0.05220723   -0.05501564    0.01283615
     atom   45 type  1   force =    -0.03967023    0.02374654   -0.01984486
     atom   46 type  1   force =    -0.05227793    0.00587316    0.03147271
     atom   47 type  1   force =    -0.00202161    0.00112281    0.03348518
     atom   48 type  1   force =    -0.09180211    0.05887934   -0.05774702
     atom   49 type  1   force =     0.04499043    0.02330229    0.02570507
     atom   50 type  1   force =     0.09162950   -0.07113012    0.06150269
     atom   51 type  1   force =    -0.02810797    0.00547664   -0.08468653
     atom   52 type  1   force =    -0.01601454   -0.05098130   -0.02895981
     atom   53 type  1   force =     0.00269690    0.01388924   -0.01004586
     atom   54 type  1   force =    -0.03531456   -0.04747262   -0.06939442
     atom   55 type  1   force =     0.01165438   -0.01330303   -0.04411264
     atom   56 type  1   force =    -0.01194817   -0.01399136    0.02264154
     atom   57 type  1   force =    -0.03497641    0.04980025    0.00403362
     atom   58 type  1   force =     0.09191948   -0.05258642   -0.10019843
     atom   59 type  1   force =     0.03381607    0.01746798   -0.03296569
     atom   60 type  1   force =    -0.10099993    0.08836729   -0.18831210
     atom   61 type  1   force =     0.10867952   -0.07513354    0.05080238
     atom   62 type  1   force =     0.01073341   -0.00789870   -0.08346156
     atom   63 type  1   force =    -0.03710360    0.00464863   -0.00610866
     atom   64 type  1   force =     0.05649105   -0.01036787   -0.04117003

     Total force =     0.699076     Total SCF correction =     0.001392


     Computing stress (Cartesian axis) and pressure

          total   stress  (Ry/bohr**3)                   (kbar)     P=      -14.67
  -0.00009010  -0.00014636   0.00007761          -13.25      -21.53       11.42
  -0.00014636  -0.00002849  -0.00011988          -21.53       -4.19      -17.64
   0.00007761  -0.00011988  -0.00018060           11.42      -17.64      -26.57

 
     init_run     :      0.99s CPU      4.89s WALL (       1 calls)
     electrons    :      2.09s CPU      2.25s WALL (       1 calls)
     forces       :      0.04s CPU      0.05s WALL (       1 calls)
     stress       :      0.15s CPU      0.15s WALL (       1 calls)

     Called by init_run:
     wfcinit      :      0.58s CPU      4.30s WALL (       1 calls)
                                        4.30s GPU  (       1 calls)
     potinit      :      0.20s CPU      0.29s WALL (       1 calls)
     hinit0       :      0.19s CPU      0.22s WALL (       1 calls)

     Called by electrons:
     c_bands      :      1.49s CPU      1.57s WALL (      14 calls)
     sum_band     :      0.30s CPU      0.35s WALL (      14 calls)
     v_of_rho     :      0.15s CPU      0.24s WALL (      14 calls)
     mix_rho      :      0.13s CPU      0.15s WALL (      14 calls)

     Called by c_bands:
     init_us_2    :      0.05s CPU      0.05s WALL (      29 calls)
     init_us_2:gp :      0.05s CPU      0.05s WALL (      29 calls)
     regterg      :      1.36s CPU      1.43s WALL (      14 calls)

     Called by *egterg:
     rdiaghg      :      0.64s CPU      1.41s WALL (     176 calls)
                                        1.38s GPU  (     176 calls)
     h_psi        :      1.10s CPU      4.09s WALL (     178 calls)
                                        4.09s GPU  (     178 calls)
     g_psi        :      0.00s CPU      0.00s WALL (     163 calls)
                                        0.00s GPU  (     163 calls)

     Called by h_psi:
     h_psi:calbec :      0.54s CPU      3.44s WALL (     178 calls)
                                        3.43s GPU  (     178 calls)
     vloc_psi     :      0.45s CPU      0.54s WALL (     178 calls)
                                        0.53s GPU  (     178 calls)
     add_vuspsi   :      0.09s CPU      0.11s WALL (     178 calls)
                                        0.11s GPU  (     178 calls)

     General routines
     calbec       :      0.54s CPU      3.44s WALL (     183 calls)
     fft          :      0.27s CPU      0.41s WALL (     119 calls)
                                        0.12s GPU  (      76 calls)
     ffts         :      0.04s CPU      0.05s WALL (      14 calls)
     fftw         :      0.47s CPU      0.65s WALL (    1472 calls)
                                        0.59s GPU  (    1472 calls)
 
     Parallel routines
 
     PWSCF        :      3.32s CPU      7.43s WALL

 
   This run was terminated on:  15:22:59   8May2023            

=------------------------------------------------------------------------------=
   JOB DONE.
=------------------------------------------------------------------------------=
