An instance of this daemon is already running
An instance of this daemon is already running

     Program PWSCF v.7.1 starts on  8May2023 at 15:40:48 

     This program is part of the open-source Quantum ESPRESSO suite
     for quantum simulation of materials; please cite
         "P. Giannozzi et al., J. Phys.:Condens. Matter 21 395502 (2009);
         "P. Giannozzi et al., J. Phys.:Condens. Matter 29 465901 (2017);
         "P. Giannozzi et al., J. Chem. Phys. 152 154105 (2020);
          URL http://www.quantum-espresso.org", 
     in publications or presentations arising from this work. More details at
     http://www.quantum-espresso.org/quote

     Parallel version (MPI & OpenMP), running on       4 processor cores
     Number of MPI processes:                 4
     Threads/MPI process:                     1

     MPI processes distributed on     1 nodes
     613347 MiB available memory on the printing compute node when the environment starts
 
     Reading input from pw-si-93.in
Warning: card &CELL ignored
Warning: card / ignored

     Current dimensions of program PWSCF are:
     Max number of different atomic species (ntypx) = 10
     Max number of k-points (npk) =  40000
     Max angular momentum in pseudopotentials (lmaxx) =  4

     IMPORTANT: XC functional enforced from input :
     Exchange-correlation= PBE
                           (   1   4   3   4   0   0   0)
     Any further DFT definition will be discarded
     Please, verify this is what you really want


     gamma-point specific algorithms are used
 
     K-points division:     npool     =       2
     R & G space division:  proc/nbgrp/npool/nimage =       2
     Subspace diagonalization in iterative solution of the eigenvalue problem:
     a serial algorithm will be used

     Message from routine divide_et_impera:
     suboptimal parallelization: some nodes have no k-points
 
     Parallelization info
     --------------------
     sticks:   dense  smooth     PW     G-vecs:    dense   smooth      PW
     Min        2029    2029    540                96199    96199   13060
     Max        2030    2030    541                96202    96202   13061
     Sum        4059    4059   1081               192401   192401   26121
 
     Using Slab Decomposition
 


     bravais-lattice index     =            0
     lattice parameter (alat)  =      20.5066  a.u.
     unit-cell volume          =    8666.0359 (a.u.)^3
     number of atoms/cell      =           64
     number of atomic types    =            1
     number of electrons       =       256.00
     number of Kohn-Sham states=          128
     kinetic-energy cutoff     =      30.0000  Ry
     charge density cutoff     =     120.0000  Ry
     scf convergence threshold =      1.0E-06
     mixing beta               =       0.5000
     number of iterations used =            8  plain     mixing
     Exchange-correlation= PBE
                           (   1   4   3   4   0   0   0)

     GPU acceleration is ACTIVE.
     GPU-aware MPI enabled

     Message from routine print_cuda_info:
     High GPU oversubscription detected. Are you sure this is what you want?

     celldm(1)=  20.506570  celldm(2)=   0.000000  celldm(3)=   0.000000
     celldm(4)=   0.000000  celldm(5)=   0.000000  celldm(6)=   0.000000

     crystal axes: (cart. coord. in units of alat)
               a(1) = (   1.000000   0.000000   0.000000 )  
               a(2) = (   0.000000   1.010654   0.000000 )  
               a(3) = (   0.000000   0.000000   0.994349 )  

     reciprocal axes: (cart. coord. in units 2 pi/alat)
               b(1) = (  1.000000  0.000000  0.000000 )  
               b(2) = (  0.000000  0.989458  0.000000 )  
               b(3) = (  0.000000  0.000000  1.005683 )  


     PseudoPot. # 1 for Si read from file:
     /home/ppiaggi/pseudos/Si_ONCV_PBE_sr.upf
     MD5 check sum: 8553c464762ac42b85b1eed164b4d029
     Pseudo is Norm-conserving, Zval =  4.0
     Generated using ONCVPSP code by D. R. Hamann
     Using radial grid of 1510 points,  4 beta functions with: 
                l(1) =   0
                l(2) =   0
                l(3) =   1
                l(4) =   1

     atomic species   valence    mass     pseudopotential
        Si             4.00    28.08500     Si( 1.00)

     No symmetry found



   Cartesian axes

     site n.     atom                  positions (alat units)
         1           Si  tau(   1) = (  -0.0035079   0.0082479  -0.0083258  )
         2           Si  tau(   2) = (  -0.0025265   0.2578239   0.2487575  )
         3           Si  tau(   3) = (   0.2410195  -0.0058272   0.2506043  )
         4           Si  tau(   4) = (   0.2537495   0.2551054  -0.0022263  )
         5           Si  tau(   5) = (   0.1180906   0.1256523   0.1154884  )
         6           Si  tau(   6) = (   0.5027476  -0.0009301   0.0035091  )
         7           Si  tau(   7) = (   0.4865751   0.2519656   0.2514848  )
         8           Si  tau(   8) = (   0.6186045   0.1317222   0.1294892  )
         9           Si  tau(   9) = (   0.7426473   0.0038409   0.2568443  )
        10           Si  tau(  10) = (   0.7349020   0.2501106  -0.0044766  )
        11           Si  tau(  11) = (  -0.0014167   0.5108299  -0.0001653  )
        12           Si  tau(  12) = (   0.2394538   0.5100105   0.2463226  )
        13           Si  tau(  13) = (   0.1247762   0.6445461   0.1230349  )
        14           Si  tau(  14) = (   0.3743992   0.3814270   0.1199048  )
        15           Si  tau(  15) = (   0.5021401   0.5227966   0.0027811  )
        16           Si  tau(  16) = (   0.6269086   0.6521079   0.1311056  )
        17           Si  tau(  17) = (   0.8698855   0.3953307   0.1276259  )
        18           Si  tau(  18) = (   0.7453271   0.5171101   0.2441930  )
        19           Si  tau(  19) = (  -0.0070853   0.7766149   0.2566666  )
        20           Si  tau(  20) = (   0.2416916   0.7737554   0.0032740  )
        21           Si  tau(  21) = (   0.3786599   0.9107095   0.1195421  )
        22           Si  tau(  22) = (   0.4917135   0.7788322   0.2430763  )
        23           Si  tau(  23) = (   0.7432338   0.7685345   0.0079793  )
        24           Si  tau(  24) = (   0.8693447   0.8965615   0.1312297  )
        25           Si  tau(  25) = (  -0.0019242  -0.0016714   0.4982773  )
        26           Si  tau(  26) = (   0.2461759   0.2589791   0.5054278  )
        27           Si  tau(  27) = (   0.1210165   0.1239022   0.6139923  )
        28           Si  tau(  28) = (   0.3704204   0.1325875   0.3805551  )
        29           Si  tau(  29) = (   0.4879977  -0.0016098   0.4991286  )
        30           Si  tau(  30) = (   0.6134378   0.1348879   0.6206922  )
        31           Si  tau(  31) = (   0.8596340   0.1209539   0.3788890  )
        32           Si  tau(  32) = (   0.7429712   0.2584870   0.5015809  )
        33           Si  tau(  33) = (   0.1309869   0.3947910   0.3727231  )
        34           Si  tau(  34) = (  -0.0018991   0.5235974   0.4971007  )
        35           Si  tau(  35) = (   0.1292892   0.6487687   0.6149093  )
        36           Si  tau(  36) = (   0.6109940   0.3926750   0.3716823  )
        37           Si  tau(  37) = (   0.3646499   0.6437649   0.3718012  )
        38           Si  tau(  38) = (   0.3780916   0.3895378   0.6181020  )
        39           Si  tau(  39) = (   0.5012095   0.5158460   0.4996863  )
        40           Si  tau(  40) = (   0.6184701   0.6545824   0.6205500  )
        41           Si  tau(  41) = (   0.8652531   0.6452231   0.3642568  )
        42           Si  tau(  42) = (   0.8584537   0.3839700   0.6152036  )
        43           Si  tau(  43) = (   0.1164980   0.9105777   0.3806448  )
        44           Si  tau(  44) = (   0.2561632   0.7693726   0.5028742  )
        45           Si  tau(  45) = (   0.6143545   0.8959261   0.3636955  )
        46           Si  tau(  46) = (   0.3680713   0.9083582   0.6194883  )
        47           Si  tau(  47) = (   0.7457802   0.7837174   0.5020053  )
        48           Si  tau(  48) = (   0.8726121   0.9122636   0.6189424  )
        49           Si  tau(  49) = (   0.0075946   0.2540030   0.7525499  )
        50           Si  tau(  50) = (   0.2392212   0.0087396   0.7418171  )
        51           Si  tau(  51) = (   0.3626405   0.1263834   0.8617771  )
        52           Si  tau(  52) = (   0.4890319   0.2584089   0.7430863  )
        53           Si  tau(  53) = (   0.7426531   0.0025336   0.7445542  )
        54           Si  tau(  54) = (   0.8580199   0.1362605   0.8614034  )
        55           Si  tau(  55) = (   0.1179597   0.3951834   0.8723971  )
        56           Si  tau(  56) = (   0.2425172   0.5244437   0.7426563  )
        57           Si  tau(  57) = (   0.6118563   0.3856894   0.8775965  )
        58           Si  tau(  58) = (   0.3767651   0.6419291   0.8681435  )
        59           Si  tau(  59) = (   0.7511076   0.5253833   0.7373463  )
        60           Si  tau(  60) = (   0.8654607   0.6486057   0.8659801  )
        61           Si  tau(  61) = (   0.0008982   0.7777529   0.7404674  )
        62           Si  tau(  62) = (   0.1197566   0.8948231   0.8722134  )
        63           Si  tau(  63) = (   0.4985136   0.7842660   0.7514540  )
        64           Si  tau(  64) = (   0.6176860   0.8999673   0.8702594  )

     number of k points=     1
                       cart. coord. in units 2pi/alat
        k(    1) = (   0.0000000   0.0000000   0.0000000), wk =   2.0000000

     Dense  grid:    96201 G-vectors     FFT dimensions: (  72,  75,  72)

     Estimated max dynamical RAM per process >     141.26 MB

     Estimated total dynamical RAM >     541.56 MB

     Initial potential from superposition of free atoms

     starting charge     255.9608, renormalised to     256.0000
     Starting wfcs are  256 randomized atomic wfcs

     total cpu time spent up to now is        5.0 secs

     Self-consistent Calculation

     iteration #  1     ecut=    30.00 Ry     beta= 0.50
     Davidson diagonalization with overlap
     ethr =  1.00E-02,  avg # of iterations =  2.0

     Threshold (ethr) on eigenvalues was too large:
     Diagonalizing with lowered threshold

     Davidson diagonalization with overlap
     ethr =  6.89E-04,  avg # of iterations =  2.0

     total cpu time spent up to now is        5.2 secs

     total energy              =    -503.48571029 Ry
     estimated scf accuracy    <       1.97107413 Ry

     iteration #  2     ecut=    30.00 Ry     beta= 0.50
     Davidson diagonalization with overlap
     ethr =  7.70E-04,  avg # of iterations =  1.0

     total cpu time spent up to now is        5.3 secs

     total energy              =    -503.46476009 Ry
     estimated scf accuracy    <       0.37355000 Ry

     iteration #  3     ecut=    30.00 Ry     beta= 0.50
     Davidson diagonalization with overlap
     ethr =  1.46E-04,  avg # of iterations =  2.0

     total cpu time spent up to now is        5.4 secs

     total energy              =    -503.49472089 Ry
     estimated scf accuracy    <       0.00742390 Ry

     iteration #  4     ecut=    30.00 Ry     beta= 0.50
     Davidson diagonalization with overlap
     ethr =  2.90E-06,  avg # of iterations = 15.0

     total cpu time spent up to now is        5.6 secs

     total energy              =    -503.50153622 Ry
     estimated scf accuracy    <       0.00359042 Ry

     iteration #  5     ecut=    30.00 Ry     beta= 0.50
     Davidson diagonalization with overlap
     ethr =  1.40E-06,  avg # of iterations = 15.0

     total cpu time spent up to now is        5.8 secs

     total energy              =    -503.50203459 Ry
     estimated scf accuracy    <       0.00062827 Ry

     iteration #  6     ecut=    30.00 Ry     beta= 0.50
     Davidson diagonalization with overlap
     ethr =  2.45E-07,  avg # of iterations =  9.0

     total cpu time spent up to now is        5.9 secs

     total energy              =    -503.50212445 Ry
     estimated scf accuracy    <       0.00038272 Ry

     iteration #  7     ecut=    30.00 Ry     beta= 0.50
     Davidson diagonalization with overlap
     ethr =  1.49E-07,  avg # of iterations =  4.0

     total cpu time spent up to now is        6.0 secs

     total energy              =    -503.50219153 Ry
     estimated scf accuracy    <       0.00004239 Ry

     iteration #  8     ecut=    30.00 Ry     beta= 0.50
     Davidson diagonalization with overlap
     ethr =  1.66E-08,  avg # of iterations = 12.0

     total cpu time spent up to now is        6.2 secs

     total energy              =    -503.50219764 Ry
     estimated scf accuracy    <       0.00000946 Ry

     iteration #  9     ecut=    30.00 Ry     beta= 0.50
     Davidson diagonalization with overlap
     ethr =  3.70E-09,  avg # of iterations = 14.0

     total cpu time spent up to now is        6.3 secs

     total energy              =    -503.50219979 Ry
     estimated scf accuracy    <       0.00000105 Ry

     iteration # 10     ecut=    30.00 Ry     beta= 0.50
     Davidson diagonalization with overlap
     ethr =  4.12E-10,  avg # of iterations =  9.0

     total cpu time spent up to now is        6.5 secs

     End of self-consistent calculation

          k = 0.0000 0.0000 0.0000 ( 12011 PWs)   bands (ev):

    -5.8550  -4.9776  -4.7983  -4.7662  -4.6889  -4.6616  -4.5736  -4.0775
    -3.9750  -3.8386  -3.8106  -3.7499  -3.7347  -3.7124  -3.6831  -3.6178
    -3.5844  -3.5495  -3.4953  -3.3800  -3.3498  -3.2643  -3.1572  -1.9817
    -1.9394  -1.7871  -1.7329  -1.6115  -1.5887  -1.5709  -1.5277  -1.4924
    -1.4739  -1.4077  -1.3693  -1.3481  -1.2769  -1.2421  -1.2346  -1.1787
    -1.1516  -0.7867  -0.7656  -0.7074  -0.4994   0.5050   0.5705   0.5791
     0.6261   0.6707   0.7505   0.7689   0.7793   0.8262   0.8698   0.8964
     0.9866   2.0192   2.0746   2.1135   2.1849   2.2170   2.2289   2.2573
     2.2934   2.3335   2.3549   2.3753   2.3950   2.4094   2.4228   2.4376
     2.4866   2.4934   2.5679   2.6106   2.6182   2.6414   2.6541   2.6786
     2.7141   2.7410   2.7729   2.8377   2.8980   2.9232   2.9901   3.1844
     3.3274   3.3502   3.3928   3.4362   3.4561   4.0753   4.1705   4.2353
     4.2595   4.2760   4.3125   4.3670   4.3906   4.4345   4.4648   4.4744
     4.5282   4.5935   4.6770   4.8033   4.8152   4.8448   4.8676   4.8939
     4.9627   4.9639   4.9858   5.0051   5.0414   5.0772   5.1064   5.1813
     5.2307   5.2919   5.3514   5.3778   5.4973   6.2123   6.2706   6.5334

     highest occupied level (ev):     6.5334

!    total energy              =    -503.50219957 Ry
     estimated scf accuracy    <       0.00000089 Ry

     The total energy is the sum of the following terms:
     one-electron contribution =     147.52025845 Ry
     hartree contribution      =      37.92108342 Ry
     xc contribution           =    -154.38957117 Ry
     ewald contribution        =    -534.55397028 Ry

     convergence has been achieved in  10 iterations

     Forces acting on atoms (cartesian axes, Ry/au):

     atom    1 type  1   force =    -0.06967218    0.01237320    0.01369808
     atom    2 type  1   force =    -0.01095588    0.00061859    0.01348995
     atom    3 type  1   force =     0.03026402    0.10486602   -0.02635160
     atom    4 type  1   force =    -0.04603710    0.01658086   -0.00783802
     atom    5 type  1   force =     0.02458347    0.03229082    0.03779268
     atom    6 type  1   force =    -0.00113444    0.12425047   -0.05136730
     atom    7 type  1   force =     0.02921125    0.03690476   -0.00331259
     atom    8 type  1   force =     0.00330377   -0.01163112    0.00449201
     atom    9 type  1   force =    -0.00974556    0.02298526   -0.06007865
     atom   10 type  1   force =     0.02708167    0.06165650    0.03891393
     atom   11 type  1   force =    -0.04067646    0.06570419    0.00851167
     atom   12 type  1   force =     0.06432337    0.03252465   -0.03882412
     atom   13 type  1   force =    -0.04370901   -0.00004086    0.02388581
     atom   14 type  1   force =    -0.00247717    0.03460958    0.01525371
     atom   15 type  1   force =    -0.01455081   -0.01259196    0.02201804
     atom   16 type  1   force =    -0.05015962   -0.03458276   -0.00489288
     atom   17 type  1   force =     0.00428887   -0.06954020   -0.03276296
     atom   18 type  1   force =    -0.02704685   -0.00798640    0.03141913
     atom   19 type  1   force =     0.03400494   -0.02116345   -0.02184625
     atom   20 type  1   force =     0.06283040   -0.00743189   -0.01336710
     atom   21 type  1   force =    -0.08713660   -0.10311687    0.03859014
     atom   22 type  1   force =    -0.01368168   -0.05140472    0.00808488
     atom   23 type  1   force =     0.02591984    0.03602315   -0.04675868
     atom   24 type  1   force =     0.01662026    0.00618538   -0.03482569
     atom   25 type  1   force =    -0.04996596    0.12813111    0.00337444
     atom   26 type  1   force =     0.00988730    0.02449897   -0.03421058
     atom   27 type  1   force =    -0.01704559    0.05208806    0.02975472
     atom   28 type  1   force =    -0.04566461   -0.02674669   -0.01495970
     atom   29 type  1   force =     0.07506220    0.08223166   -0.05499759
     atom   30 type  1   force =     0.00641780   -0.02681872    0.00235139
     atom   31 type  1   force =     0.06274426    0.06144097    0.00629752
     atom   32 type  1   force =    -0.04314584   -0.01029455   -0.05049722
     atom   33 type  1   force =    -0.07095819   -0.06259895    0.04580411
     atom   34 type  1   force =    -0.02400080   -0.02900403   -0.02207150
     atom   35 type  1   force =    -0.04947303   -0.00070120    0.02610957
     atom   36 type  1   force =     0.04657924   -0.04098754   -0.01684928
     atom   37 type  1   force =     0.03581038   -0.01961094   -0.01983193
     atom   38 type  1   force =    -0.04469832    0.01140584    0.02718467
     atom   39 type  1   force =    -0.02849414    0.04921538   -0.01380090
     atom   40 type  1   force =     0.01196654   -0.00356948    0.01271001
     atom   41 type  1   force =     0.01094150    0.01003349    0.06442025
     atom   42 type  1   force =     0.10343491    0.03558120    0.04329949
     atom   43 type  1   force =     0.05842217   -0.15747450   -0.03652502
     atom   44 type  1   force =    -0.02748731    0.04227853   -0.03558764
     atom   45 type  1   force =    -0.00212971   -0.02064504    0.07502991
     atom   46 type  1   force =    -0.01607697   -0.08803456    0.06492025
     atom   47 type  1   force =    -0.00439155   -0.03562685   -0.04752067
     atom   48 type  1   force =    -0.01239292   -0.09732338    0.04275717
     atom   49 type  1   force =    -0.06091254    0.02158450   -0.04445231
     atom   50 type  1   force =    -0.01032290   -0.01823223    0.01346157
     atom   51 type  1   force =     0.05133691    0.01037542    0.02948800
     atom   52 type  1   force =     0.01144794    0.01016728    0.02921464
     atom   53 type  1   force =    -0.02502916    0.06074980   -0.01116744
     atom   54 type  1   force =     0.05775944   -0.01598156    0.01871717
     atom   55 type  1   force =     0.05745404   -0.04315946   -0.01643464
     atom   56 type  1   force =     0.03244306   -0.04222405    0.00791866
     atom   57 type  1   force =     0.03241498    0.01440938   -0.05386009
     atom   58 type  1   force =    -0.02791649    0.03419701    0.01107048
     atom   59 type  1   force =    -0.05849459   -0.04196763    0.02280066
     atom   60 type  1   force =     0.04936925   -0.00604909    0.01735933
     atom   61 type  1   force =    -0.02764622   -0.02502464    0.00045220
     atom   62 type  1   force =     0.00970404   -0.00989095   -0.02356861
     atom   63 type  1   force =    -0.04642524   -0.05160322   -0.04416895
     atom   64 type  1   force =     0.06402762   -0.04290255    0.03208366

     Total force =     0.588715     Total SCF correction =     0.001626


     Computing stress (Cartesian axis) and pressure

          total   stress  (Ry/bohr**3)                   (kbar)     P=       39.13
   0.00028534   0.00007005  -0.00011001           41.98       10.30      -16.18
   0.00007005   0.00017816   0.00003414           10.30       26.21        5.02
  -0.00011001   0.00003414   0.00033444          -16.18        5.02       49.20

 
     init_run     :      1.21s CPU      4.95s WALL (       1 calls)
     electrons    :      1.34s CPU      1.45s WALL (       1 calls)
     forces       :      0.04s CPU      0.05s WALL (       1 calls)
     stress       :      0.14s CPU      0.14s WALL (       1 calls)

     Called by init_run:
     wfcinit      :      0.58s CPU      4.11s WALL (       1 calls)
                                        4.11s GPU  (       1 calls)
     potinit      :      0.19s CPU      0.32s WALL (       1 calls)
     hinit0       :      0.41s CPU      0.44s WALL (       1 calls)

     Called by electrons:
     c_bands      :      0.93s CPU      0.98s WALL (      11 calls)
     sum_band     :      0.22s CPU      0.24s WALL (      11 calls)
     v_of_rho     :      0.11s CPU      0.24s WALL (      11 calls)
     mix_rho      :      0.08s CPU      0.09s WALL (      11 calls)

     Called by c_bands:
     init_us_2    :      0.04s CPU      0.04s WALL (      23 calls)
     init_us_2:gp :      0.04s CPU      0.04s WALL (      23 calls)
     regterg      :      0.83s CPU      0.88s WALL (      11 calls)

     Called by *egterg:
     rdiaghg      :      0.40s CPU      1.14s WALL (      95 calls)
                                        1.12s GPU  (      95 calls)
     h_psi        :      0.86s CPU      3.68s WALL (      97 calls)
                                        3.68s GPU  (      97 calls)
     g_psi        :      0.00s CPU      0.00s WALL (      85 calls)
                                        0.00s GPU  (      85 calls)

     Called by h_psi:
     h_psi:calbec :      0.52s CPU      3.27s WALL (      97 calls)
                                        3.27s GPU  (      97 calls)
     vloc_psi     :      0.28s CPU      0.35s WALL (      97 calls)
                                        0.35s GPU  (      97 calls)
     add_vuspsi   :      0.05s CPU      0.06s WALL (      97 calls)
                                        0.06s GPU  (      97 calls)

     General routines
     calbec       :      0.53s CPU      3.27s WALL (     102 calls)
     fft          :      0.46s CPU      0.62s WALL (      95 calls)
                                        0.16s GPU  (      61 calls)
     ffts         :      0.03s CPU      0.03s WALL (      11 calls)
     fftw         :      0.31s CPU      0.44s WALL (    1086 calls)
                                        0.39s GPU  (    1086 calls)
 
     Parallel routines
 
     PWSCF        :      2.77s CPU      6.67s WALL

 
   This run was terminated on:  15:40:54   8May2023            

=------------------------------------------------------------------------------=
   JOB DONE.
=------------------------------------------------------------------------------=
