An instance of this daemon is already running

     Program PWSCF v.7.1 starts on  8May2023 at 15:30: 0 

     This program is part of the open-source Quantum ESPRESSO suite
     for quantum simulation of materials; please cite
         "P. Giannozzi et al., J. Phys.:Condens. Matter 21 395502 (2009);
         "P. Giannozzi et al., J. Phys.:Condens. Matter 29 465901 (2017);
         "P. Giannozzi et al., J. Chem. Phys. 152 154105 (2020);
          URL http://www.quantum-espresso.org", 
     in publications or presentations arising from this work. More details at
     http://www.quantum-espresso.org/quote

     Parallel version (MPI & OpenMP), running on       4 processor cores
     Number of MPI processes:                 4
     Threads/MPI process:                     1

     MPI processes distributed on     1 nodes
     612642 MiB available memory on the printing compute node when the environment starts
 
     Reading input from pw-si-37.in
Warning: card &CELL ignored
Warning: card / ignored

     Current dimensions of program PWSCF are:
     Max number of different atomic species (ntypx) = 10
     Max number of k-points (npk) =  40000
     Max angular momentum in pseudopotentials (lmaxx) =  4

     IMPORTANT: XC functional enforced from input :
     Exchange-correlation= PBE
                           (   1   4   3   4   0   0   0)
     Any further DFT definition will be discarded
     Please, verify this is what you really want


     gamma-point specific algorithms are used
 
     K-points division:     npool     =       2
     R & G space division:  proc/nbgrp/npool/nimage =       2
     Subspace diagonalization in iterative solution of the eigenvalue problem:
     a serial algorithm will be used

     Message from routine divide_et_impera:
     suboptimal parallelization: some nodes have no k-points
 
     Parallelization info
     --------------------
     sticks:   dense  smooth     PW     G-vecs:    dense   smooth      PW
     Min        2049    2049    543                98147    98147   13315
     Max        2050    2050    546                98154    98154   13318
     Sum        4099    4099   1089               196301   196301   26633
 
     Using Slab Decomposition
 


     bravais-lattice index     =            0
     lattice parameter (alat)  =      20.4440  a.u.
     unit-cell volume          =    8841.5821 (a.u.)^3
     number of atoms/cell      =           64
     number of atomic types    =            1
     number of electrons       =       256.00
     number of Kohn-Sham states=          128
     kinetic-energy cutoff     =      30.0000  Ry
     charge density cutoff     =     120.0000  Ry
     scf convergence threshold =      1.0E-06
     mixing beta               =       0.5000
     number of iterations used =            8  plain     mixing
     Exchange-correlation= PBE
                           (   1   4   3   4   0   0   0)

     GPU acceleration is ACTIVE.
     GPU-aware MPI enabled

     Message from routine print_cuda_info:
     High GPU oversubscription detected. Are you sure this is what you want?

     celldm(1)=  20.443969  celldm(2)=   0.000000  celldm(3)=   0.000000
     celldm(4)=   0.000000  celldm(5)=   0.000000  celldm(6)=   0.000000

     crystal axes: (cart. coord. in units of alat)
               a(1) = (   1.000000   0.000000   0.000000 )  
               a(2) = (   0.000000   1.027073   0.000000 )  
               a(3) = (   0.000000   0.000000   1.007472 )  

     reciprocal axes: (cart. coord. in units 2 pi/alat)
               b(1) = (  1.000000  0.000000  0.000000 )  
               b(2) = (  0.000000  0.973641  0.000000 )  
               b(3) = (  0.000000  0.000000  0.992583 )  


     PseudoPot. # 1 for Si read from file:
     /home/ppiaggi/pseudos/Si_ONCV_PBE_sr.upf
     MD5 check sum: 8553c464762ac42b85b1eed164b4d029
     Pseudo is Norm-conserving, Zval =  4.0
     Generated using ONCVPSP code by D. R. Hamann
     Using radial grid of 1510 points,  4 beta functions with: 
                l(1) =   0
                l(2) =   0
                l(3) =   1
                l(4) =   1

     atomic species   valence    mass     pseudopotential
        Si             4.00    28.08500     Si( 1.00)

     No symmetry found



   Cartesian axes

     site n.     atom                  positions (alat units)
         1           Si  tau(   1) = (   0.0047869  -0.0048565   0.0065167  )
         2           Si  tau(   2) = (   0.0037846   0.2530994   0.2567320  )
         3           Si  tau(   3) = (   0.2410603  -0.0018967   0.2513510  )
         4           Si  tau(   4) = (   0.2545563   0.2501069   0.0083226  )
         5           Si  tau(   5) = (   0.1204519   0.1260212   0.1205871  )
         6           Si  tau(   6) = (   0.4877193   0.0048633  -0.0016695  )
         7           Si  tau(   7) = (   0.4919216   0.2613307   0.2516163  )
         8           Si  tau(   8) = (   0.6182788   0.1361845   0.1242159  )
         9           Si  tau(   9) = (   0.7407059   0.0063309   0.2547508  )
        10           Si  tau(  10) = (   0.7424652   0.2564062  -0.0001623  )
        11           Si  tau(  11) = (  -0.0025509   0.5086541  -0.0068515  )
        12           Si  tau(  12) = (   0.2534161   0.5053590   0.2496538  )
        13           Si  tau(  13) = (   0.1234651   0.6393479   0.1343291  )
        14           Si  tau(  14) = (   0.3702655   0.3907730   0.1274278  )
        15           Si  tau(  15) = (   0.5008712   0.5091918   0.0086151  )
        16           Si  tau(  16) = (   0.6185784   0.6304906   0.1367885  )
        17           Si  tau(  17) = (   0.8764716   0.3814574   0.1347956  )
        18           Si  tau(  18) = (   0.7440032   0.5101601   0.2615182  )
        19           Si  tau(  19) = (   0.0074667   0.7710590   0.2593853  )
        20           Si  tau(  20) = (   0.2511921   0.7586711   0.0072539  )
        21           Si  tau(  21) = (   0.3688542   0.8925510   0.1354804  )
        22           Si  tau(  22) = (   0.5030095   0.7675035   0.2664526  )
        23           Si  tau(  23) = (   0.7391818   0.7661022   0.0001566  )
        24           Si  tau(  24) = (   0.8673851   0.8899986   0.1206978  )
        25           Si  tau(  25) = (   0.0006867  -0.0029686   0.5154572  )
        26           Si  tau(  26) = (   0.2493052   0.2498139   0.5196760  )
        27           Si  tau(  27) = (   0.1323145   0.1274850   0.6452787  )
        28           Si  tau(  28) = (   0.3718572   0.1293034   0.3789076  )
        29           Si  tau(  29) = (   0.4970244  -0.0043787   0.5080644  )
        30           Si  tau(  30) = (   0.6154866   0.1243061   0.6424149  )
        31           Si  tau(  31) = (   0.8651083   0.1197646   0.3827999  )
        32           Si  tau(  32) = (   0.7414401   0.2573640   0.5088668  )
        33           Si  tau(  33) = (   0.1295101   0.3915615   0.3781182  )
        34           Si  tau(  34) = (  -0.0068519   0.5103414   0.5125503  )
        35           Si  tau(  35) = (   0.1312445   0.6441626   0.6537786  )
        36           Si  tau(  36) = (   0.6188239   0.3845576   0.3826668  )
        37           Si  tau(  37) = (   0.3756277   0.6427128   0.3858980  )
        38           Si  tau(  38) = (   0.3709289   0.3845036   0.6505493  )
        39           Si  tau(  39) = (   0.4953676   0.5017128   0.5214061  )
        40           Si  tau(  40) = (   0.6198685   0.6338955   0.6446748  )
        41           Si  tau(  41) = (   0.8755289   0.6437939   0.3936084  )
        42           Si  tau(  42) = (   0.8638431   0.3801748   0.6546907  )
        43           Si  tau(  43) = (   0.1244864   0.9035055   0.3881898  )
        44           Si  tau(  44) = (   0.2414948   0.7604457   0.5155478  )
        45           Si  tau(  45) = (   0.6173315   0.8899597   0.3865055  )
        46           Si  tau(  46) = (   0.3671793   0.8891097   0.6511104  )
        47           Si  tau(  47) = (   0.7385052   0.7645727   0.5227663  )
        48           Si  tau(  48) = (   0.8732418   0.8945242   0.6520250  )
        49           Si  tau(  49) = (  -0.0043128   0.2612537   0.7777043  )
        50           Si  tau(  50) = (   0.2406460  -0.0045763   0.7675145  )
        51           Si  tau(  51) = (   0.3771350   0.1304057   0.9046978  )
        52           Si  tau(  52) = (   0.4997493   0.2582727   0.7678437  )
        53           Si  tau(  53) = (   0.7420299   0.0024629   0.7656607  )
        54           Si  tau(  54) = (   0.8711469   0.1236863   0.9064409  )
        55           Si  tau(  55) = (   0.1240558   0.3865818   0.8957160  )
        56           Si  tau(  56) = (   0.2446927   0.5167809   0.7804885  )
        57           Si  tau(  57) = (   0.6276896   0.3774211   0.8983845  )
        58           Si  tau(  58) = (   0.3794281   0.6297734   0.9108582  )
        59           Si  tau(  59) = (   0.7393333   0.5143832   0.7833718  )
        60           Si  tau(  60) = (   0.8736998   0.6434014   0.8946234  )
        61           Si  tau(  61) = (   0.0060110   0.7629768   0.7692424  )
        62           Si  tau(  62) = (   0.1266825   0.8928517   0.9003751  )
        63           Si  tau(  63) = (   0.4938286   0.7605171   0.7797574  )
        64           Si  tau(  64) = (   0.6232587   0.8978663   0.8981237  )

     number of k points=     1
                       cart. coord. in units 2pi/alat
        k(    1) = (   0.0000000   0.0000000   0.0000000), wk =   2.0000000

     Dense  grid:    98151 G-vectors     FFT dimensions: (  72,  75,  72)

     Estimated max dynamical RAM per process >     143.81 MB

     Estimated total dynamical RAM >     551.29 MB

     Initial potential from superposition of free atoms

     starting charge     255.9608, renormalised to     256.0000
     Starting wfcs are  256 randomized atomic wfcs

     total cpu time spent up to now is        4.9 secs

     Self-consistent Calculation

     iteration #  1     ecut=    30.00 Ry     beta= 0.50
     Davidson diagonalization with overlap
     ethr =  1.00E-02,  avg # of iterations =  2.0

     Threshold (ethr) on eigenvalues was too large:
     Diagonalizing with lowered threshold

     Davidson diagonalization with overlap
     ethr =  6.63E-04,  avg # of iterations =  2.0

     total cpu time spent up to now is        5.2 secs

     total energy              =    -503.60125526 Ry
     estimated scf accuracy    <       1.89825774 Ry

     iteration #  2     ecut=    30.00 Ry     beta= 0.50
     Davidson diagonalization with overlap
     ethr =  7.42E-04,  avg # of iterations =  1.0

     total cpu time spent up to now is        5.3 secs

     total energy              =    -503.57976865 Ry
     estimated scf accuracy    <       0.36540163 Ry

     iteration #  3     ecut=    30.00 Ry     beta= 0.50
     Davidson diagonalization with overlap
     ethr =  1.43E-04,  avg # of iterations =  2.0

     total cpu time spent up to now is        5.3 secs

     total energy              =    -503.60785470 Ry
     estimated scf accuracy    <       0.00710082 Ry

     iteration #  4     ecut=    30.00 Ry     beta= 0.50
     Davidson diagonalization with overlap
     ethr =  2.77E-06,  avg # of iterations = 12.0

     total cpu time spent up to now is        5.5 secs

     total energy              =    -503.61350379 Ry
     estimated scf accuracy    <       0.00242002 Ry

     iteration #  5     ecut=    30.00 Ry     beta= 0.50
     Davidson diagonalization with overlap
     ethr =  9.45E-07,  avg # of iterations =  6.0

     total cpu time spent up to now is        5.6 secs

     total energy              =    -503.61389298 Ry
     estimated scf accuracy    <       0.00066451 Ry

     iteration #  6     ecut=    30.00 Ry     beta= 0.50
     Davidson diagonalization with overlap
     ethr =  2.60E-07,  avg # of iterations =  8.0

     total cpu time spent up to now is        5.7 secs

     total energy              =    -503.61404108 Ry
     estimated scf accuracy    <       0.00018006 Ry

     iteration #  7     ecut=    30.00 Ry     beta= 0.50
     Davidson diagonalization with overlap
     ethr =  7.03E-08,  avg # of iterations =  4.0

     total cpu time spent up to now is        5.9 secs

     total energy              =    -503.61406705 Ry
     estimated scf accuracy    <       0.00001277 Ry

     iteration #  8     ecut=    30.00 Ry     beta= 0.50
     Davidson diagonalization with overlap
     ethr =  4.99E-09,  avg # of iterations = 12.0

     total cpu time spent up to now is        6.0 secs

     total energy              =    -503.61406926 Ry
     estimated scf accuracy    <       0.00002723 Ry

     iteration #  9     ecut=    30.00 Ry     beta= 0.50
     Davidson diagonalization with overlap
     ethr =  4.99E-09,  avg # of iterations =  3.0

     total cpu time spent up to now is        6.1 secs

     total energy              =    -503.61407255 Ry
     estimated scf accuracy    <       0.00000235 Ry

     iteration # 10     ecut=    30.00 Ry     beta= 0.50
     Davidson diagonalization with overlap
     ethr =  9.20E-10,  avg # of iterations = 11.0

     total cpu time spent up to now is        6.3 secs

     total energy              =    -503.61407331 Ry
     estimated scf accuracy    <       0.00000298 Ry

     iteration # 11     ecut=    30.00 Ry     beta= 0.50
     Davidson diagonalization with overlap
     ethr =  9.20E-10,  avg # of iterations =  2.0

     total cpu time spent up to now is        6.3 secs

     End of self-consistent calculation

          k = 0.0000 0.0000 0.0000 ( 12269 PWs)   bands (ev):

    -5.9227  -4.9608  -4.9311  -4.8554  -4.8144  -4.7039  -4.6471  -4.1587
    -3.9761  -3.9702  -3.9300  -3.8901  -3.8495  -3.8278  -3.7858  -3.7490
    -3.7450  -3.6458  -3.4939  -3.4735  -3.4282  -3.3580  -3.2654  -2.1427
    -2.0616  -1.8551  -1.8265  -1.7679  -1.7472  -1.7189  -1.6879  -1.6373
    -1.5937  -1.5671  -1.5265  -1.4987  -1.4195  -1.3997  -1.3762  -1.3305
    -1.2205  -0.9540  -0.8873  -0.8109  -0.6447   0.3478   0.4080   0.4531
     0.4956   0.5044   0.5143   0.5902   0.6313   0.6567   0.7105   0.7583
     0.8061   1.9044   1.9589   1.9826   2.0320   2.0437   2.0867   2.1152
     2.1857   2.2155   2.2549   2.2740   2.2779   2.3054   2.3301   2.3588
     2.3765   2.4115   2.4192   2.4390   2.4757   2.4833   2.5035   2.5283
     2.5636   2.5796   2.6243   2.6402   2.6724   2.7027   2.7475   3.0119
     3.1593   3.1765   3.2102   3.3623   3.4029   3.9556   3.9712   4.0263
     4.0696   4.1459   4.1694   4.1916   4.2343   4.2738   4.2896   4.3333
     4.3409   4.3569   4.5180   4.5906   4.6210   4.6599   4.6669   4.6763
     4.7165   4.7941   4.8082   4.8509   4.8838   4.9146   4.9732   5.0260
     5.0465   5.0928   5.1384   5.1655   5.2494   5.9280   6.0946   6.2769

     highest occupied level (ev):     6.2769

!    total energy              =    -503.61407263 Ry
     estimated scf accuracy    <       0.00000093 Ry

     The total energy is the sum of the following terms:
     one-electron contribution =     142.57618790 Ry
     hartree contribution      =      38.57453599 Ry
     xc contribution           =    -153.71210345 Ry
     ewald contribution        =    -531.05269306 Ry

     convergence has been achieved in  11 iterations

     Forces acting on atoms (cartesian axes, Ry/au):

     atom    1 type  1   force =    -0.05208636   -0.02580805    0.01273243
     atom    2 type  1   force =    -0.01595479   -0.00610028    0.01426082
     atom    3 type  1   force =     0.01939745    0.01437242    0.02052679
     atom    4 type  1   force =    -0.04586488    0.05669051    0.01835256
     atom    5 type  1   force =     0.01500681    0.01128426    0.05196373
     atom    6 type  1   force =     0.07848048   -0.09121951    0.10854243
     atom    7 type  1   force =     0.01324018   -0.00343280    0.01556444
     atom    8 type  1   force =    -0.02226268   -0.02773043    0.01565969
     atom    9 type  1   force =    -0.00809858   -0.05714143   -0.02137155
     atom   10 type  1   force =     0.06904053   -0.02365235    0.09620387
     atom   11 type  1   force =    -0.01799332    0.02725160    0.10938661
     atom   12 type  1   force =    -0.01846479    0.07920074    0.04353412
     atom   13 type  1   force =    -0.00942490   -0.02817669   -0.02119041
     atom   14 type  1   force =     0.02137421   -0.05591809   -0.00966384
     atom   15 type  1   force =     0.03612171   -0.05265545    0.03626781
     atom   16 type  1   force =     0.01806236    0.04611546   -0.00294386
     atom   17 type  1   force =    -0.02106869    0.00776131   -0.02166882
     atom   18 type  1   force =     0.04892428    0.01041405    0.01011778
     atom   19 type  1   force =    -0.05117194    0.00516418    0.00644890
     atom   20 type  1   force =    -0.00721927    0.03004821    0.04669618
     atom   21 type  1   force =     0.02101022    0.00753272   -0.00912520
     atom   22 type  1   force =    -0.03634087   -0.01597010   -0.05129002
     atom   23 type  1   force =     0.01843067   -0.02945072    0.05865742
     atom   24 type  1   force =     0.02039824    0.02881427    0.05777556
     atom   25 type  1   force =    -0.02762931    0.01173097    0.01685743
     atom   26 type  1   force =     0.01483241    0.04625833   -0.03905886
     atom   27 type  1   force =    -0.07929486    0.00716414   -0.00311977
     atom   28 type  1   force =    -0.00589580   -0.01504982    0.01132086
     atom   29 type  1   force =    -0.03141476   -0.00997069    0.02651798
     atom   30 type  1   force =     0.00857647    0.01542738   -0.04309511
     atom   31 type  1   force =     0.04513472    0.03821365    0.02485458
     atom   32 type  1   force =     0.01117676   -0.02250049    0.02788307
     atom   33 type  1   force =    -0.02333649   -0.05079499    0.05040253
     atom   34 type  1   force =     0.02921465   -0.00929292    0.04641974
     atom   35 type  1   force =    -0.03688561   -0.05292976   -0.06323089
     atom   36 type  1   force =    -0.01243239   -0.01080653    0.01268208
     atom   37 type  1   force =    -0.01459742   -0.04531473    0.01986933
     atom   38 type  1   force =    -0.02751443   -0.00729457   -0.00732809
     atom   39 type  1   force =     0.00176404    0.03747781   -0.03095062
     atom   40 type  1   force =    -0.02447366   -0.00132425    0.01949018
     atom   41 type  1   force =    -0.02334632    0.00818403   -0.02706182
     atom   42 type  1   force =     0.00146463    0.02016830   -0.04677126
     atom   43 type  1   force =     0.00287759   -0.02772905    0.00046878
     atom   44 type  1   force =     0.03197427    0.04385993   -0.01073390
     atom   45 type  1   force =     0.05332802    0.04905305    0.02023825
     atom   46 type  1   force =     0.01281855    0.00647931   -0.04026878
     atom   47 type  1   force =     0.04207535    0.01920399   -0.01287697
     atom   48 type  1   force =    -0.00266736    0.00299290   -0.03724245
     atom   49 type  1   force =     0.00944486   -0.04715577   -0.02095640
     atom   50 type  1   force =     0.04715794    0.00389533    0.03935559
     atom   51 type  1   force =    -0.04925298    0.02255860   -0.14568053
     atom   52 type  1   force =    -0.00665307   -0.01613015    0.02002308
     atom   53 type  1   force =     0.02972567   -0.01476425    0.03236657
     atom   54 type  1   force =     0.00905736   -0.00082700   -0.07478243
     atom   55 type  1   force =     0.02678834   -0.04999652   -0.01782261
     atom   56 type  1   force =     0.04472819   -0.01478141   -0.01917177
     atom   57 type  1   force =    -0.06453617    0.04576578   -0.05131449
     atom   58 type  1   force =    -0.03419078    0.03748802   -0.08336998
     atom   59 type  1   force =     0.03318855    0.00427623   -0.05124182
     atom   60 type  1   force =    -0.00692518   -0.00325750   -0.03050625
     atom   61 type  1   force =    -0.03689856    0.04376939    0.02675747
     atom   62 type  1   force =     0.00444654   -0.01147179   -0.04496001
     atom   63 type  1   force =     0.01558251    0.01423143   -0.02317779
     atom   64 type  1   force =    -0.04094832    0.02579982   -0.05622234

     Total force =     0.513599     Total SCF correction =     0.001936


     Computing stress (Cartesian axis) and pressure

          total   stress  (Ry/bohr**3)                   (kbar)     P=       17.40
   0.00019282  -0.00008944  -0.00000294           28.37      -13.16       -0.43
  -0.00008944   0.00004422  -0.00003594          -13.16        6.51       -5.29
  -0.00000294  -0.00003594   0.00011772           -0.43       -5.29       17.32

 
     init_run     :      1.20s CPU      4.86s WALL (       1 calls)
     electrons    :      1.32s CPU      1.41s WALL (       1 calls)
     forces       :      0.04s CPU      0.05s WALL (       1 calls)
     stress       :      0.14s CPU      0.14s WALL (       1 calls)

     Called by init_run:
     wfcinit      :      0.55s CPU      4.05s WALL (       1 calls)
                                        4.05s GPU  (       1 calls)
     potinit      :      0.21s CPU      0.30s WALL (       1 calls)
     hinit0       :      0.41s CPU      0.44s WALL (       1 calls)

     Called by electrons:
     c_bands      :      0.85s CPU      0.89s WALL (      12 calls)
     sum_band     :      0.24s CPU      0.27s WALL (      12 calls)
     v_of_rho     :      0.13s CPU      0.22s WALL (      12 calls)
     mix_rho      :      0.10s CPU      0.11s WALL (      12 calls)

     Called by c_bands:
     init_us_2    :      0.04s CPU      0.04s WALL (      25 calls)
     init_us_2:gp :      0.04s CPU      0.04s WALL (      25 calls)
     regterg      :      0.74s CPU      0.78s WALL (      12 calls)

     Called by *egterg:
     rdiaghg      :      0.32s CPU      1.04s WALL (      76 calls)
                                        1.03s GPU  (      76 calls)
     h_psi        :      0.83s CPU      3.63s WALL (      78 calls)
                                        3.63s GPU  (      78 calls)
     g_psi        :      0.00s CPU      0.00s WALL (      65 calls)
                                        0.00s GPU  (      65 calls)

     Called by h_psi:
     h_psi:calbec :      0.49s CPU      3.21s WALL (      78 calls)
                                        3.21s GPU  (      78 calls)
     vloc_psi     :      0.30s CPU      0.37s WALL (      78 calls)
                                        0.37s GPU  (      78 calls)
     add_vuspsi   :      0.03s CPU      0.05s WALL (      78 calls)
                                        0.05s GPU  (      78 calls)

     General routines
     calbec       :      0.49s CPU      3.22s WALL (      83 calls)
     fft          :      0.49s CPU      0.60s WALL (     103 calls)
                                        0.13s GPU  (      66 calls)
     ffts         :      0.03s CPU      0.04s WALL (      12 calls)
     fftw         :      0.33s CPU      0.46s WALL (    1134 calls)
                                        0.41s GPU  (    1134 calls)
 
     Parallel routines
 
     PWSCF        :      2.74s CPU      6.55s WALL

 
   This run was terminated on:  15:30: 7   8May2023            

=------------------------------------------------------------------------------=
   JOB DONE.
=------------------------------------------------------------------------------=
