An instance of this daemon is already running
An instance of this daemon is already running

     Program PWSCF v.7.1 starts on  8May2023 at 15:25:44 

     This program is part of the open-source Quantum ESPRESSO suite
     for quantum simulation of materials; please cite
         "P. Giannozzi et al., J. Phys.:Condens. Matter 21 395502 (2009);
         "P. Giannozzi et al., J. Phys.:Condens. Matter 29 465901 (2017);
         "P. Giannozzi et al., J. Chem. Phys. 152 154105 (2020);
          URL http://www.quantum-espresso.org", 
     in publications or presentations arising from this work. More details at
     http://www.quantum-espresso.org/quote

     Parallel version (MPI & OpenMP), running on       4 processor cores
     Number of MPI processes:                 4
     Threads/MPI process:                     1

     MPI processes distributed on     1 nodes
     612799 MiB available memory on the printing compute node when the environment starts
 
     Reading input from pw-si-12.in
Warning: card &CELL ignored
Warning: card / ignored

     Current dimensions of program PWSCF are:
     Max number of different atomic species (ntypx) = 10
     Max number of k-points (npk) =  40000
     Max angular momentum in pseudopotentials (lmaxx) =  4

     IMPORTANT: XC functional enforced from input :
     Exchange-correlation= PBE
                           (   1   4   3   4   0   0   0)
     Any further DFT definition will be discarded
     Please, verify this is what you really want


     gamma-point specific algorithms are used
 
     K-points division:     npool     =       2
     R & G space division:  proc/nbgrp/npool/nimage =       2
     Subspace diagonalization in iterative solution of the eigenvalue problem:
     a serial algorithm will be used

     Message from routine divide_et_impera:
     suboptimal parallelization: some nodes have no k-points
 
     Parallelization info
     --------------------
     sticks:   dense  smooth     PW     G-vecs:    dense   smooth      PW
     Min        2120    2120    559               101943   101943   13851
     Max        2123    2123    560               101944   101944   13852
     Sum        4243    4243   1119               203887   203887   27703
 
     Using Slab Decomposition
 


     bravais-lattice index     =            0
     lattice parameter (alat)  =      21.3564  a.u.
     unit-cell volume          =    9189.2465 (a.u.)^3
     number of atoms/cell      =           64
     number of atomic types    =            1
     number of electrons       =       256.00
     number of Kohn-Sham states=          128
     kinetic-energy cutoff     =      30.0000  Ry
     charge density cutoff     =     120.0000  Ry
     scf convergence threshold =      1.0E-06
     mixing beta               =       0.5000
     number of iterations used =            8  plain     mixing
     Exchange-correlation= PBE
                           (   1   4   3   4   0   0   0)

     GPU acceleration is ACTIVE.
     GPU-aware MPI enabled

     Message from routine print_cuda_info:
     High GPU oversubscription detected. Are you sure this is what you want?

     celldm(1)=  21.356387  celldm(2)=   0.000000  celldm(3)=   0.000000
     celldm(4)=   0.000000  celldm(5)=   0.000000  celldm(6)=   0.000000

     crystal axes: (cart. coord. in units of alat)
               a(1) = (   1.000000   0.000000   0.000000 )  
               a(2) = (   0.000000   0.974603   0.000000 )  
               a(3) = (   0.000000   0.000000   0.967986 )  

     reciprocal axes: (cart. coord. in units 2 pi/alat)
               b(1) = (  1.000000  0.000000  0.000000 )  
               b(2) = (  0.000000  1.026059  0.000000 )  
               b(3) = (  0.000000  0.000000  1.033073 )  


     PseudoPot. # 1 for Si read from file:
     /home/ppiaggi/pseudos/Si_ONCV_PBE_sr.upf
     MD5 check sum: 8553c464762ac42b85b1eed164b4d029
     Pseudo is Norm-conserving, Zval =  4.0
     Generated using ONCVPSP code by D. R. Hamann
     Using radial grid of 1510 points,  4 beta functions with: 
                l(1) =   0
                l(2) =   0
                l(3) =   1
                l(4) =   1

     atomic species   valence    mass     pseudopotential
        Si             4.00    28.08500     Si( 1.00)

     No symmetry found



   Cartesian axes

     site n.     atom                  positions (alat units)
         1           Si  tau(   1) = (   0.0043107   0.0021958  -0.0003571  )
         2           Si  tau(   2) = (  -0.0013734   0.2491836   0.2512612  )
         3           Si  tau(   3) = (   0.2490355   0.0062693   0.2409152  )
         4           Si  tau(   4) = (   0.2557746   0.2535402   0.0062856  )
         5           Si  tau(   5) = (   0.1216349   0.1199494   0.1149844  )
         6           Si  tau(   6) = (   0.4966080  -0.0069043  -0.0063505  )
         7           Si  tau(   7) = (   0.5005939   0.2518876   0.2402175  )
         8           Si  tau(   8) = (   0.6248532   0.1296099   0.1255905  )
         9           Si  tau(   9) = (   0.7501957  -0.0080303   0.2459731  )
        10           Si  tau(  10) = (   0.7458474   0.2533272   0.0000797  )
        11           Si  tau(  11) = (  -0.0009420   0.4837421   0.0047852  )
        12           Si  tau(  12) = (   0.2464829   0.4869765   0.2351383  )
        13           Si  tau(  13) = (   0.1298689   0.6119765   0.1161915  )
        14           Si  tau(  14) = (   0.3761959   0.3749135   0.1292891  )
        15           Si  tau(  15) = (   0.5013537   0.4875060   0.0026540  )
        16           Si  tau(  16) = (   0.6316682   0.6195965   0.1263114  )
        17           Si  tau(  17) = (   0.8690612   0.3676859   0.1273838  )
        18           Si  tau(  18) = (   0.7566724   0.4979413   0.2350303  )
        19           Si  tau(  19) = (   0.0057599   0.7317205   0.2485057  )
        20           Si  tau(  20) = (   0.2499768   0.7383521   0.0025084  )
        21           Si  tau(  21) = (   0.3752494   0.8594781   0.1222833  )
        22           Si  tau(  22) = (   0.5069583   0.7420055   0.2499986  )
        23           Si  tau(  23) = (   0.7598498   0.7332777   0.0076683  )
        24           Si  tau(  24) = (   0.8779607   0.8537702   0.1286355  )
        25           Si  tau(  25) = (   0.0058362  -0.0010884   0.4864650  )
        26           Si  tau(  26) = (   0.2508159   0.2465956   0.4901772  )
        27           Si  tau(  27) = (   0.1230464   0.1161804   0.6011805  )
        28           Si  tau(  28) = (   0.3783200   0.1292763   0.3707886  )
        29           Si  tau(  29) = (   0.5022730  -0.0055390   0.4921194  )
        30           Si  tau(  30) = (   0.6225745   0.1140841   0.6169155  )
        31           Si  tau(  31) = (   0.8805291   0.1268385   0.3580185  )
        32           Si  tau(  32) = (   0.7546821   0.2394611   0.4944518  )
        33           Si  tau(  33) = (   0.1336048   0.3666358   0.3599502  )
        34           Si  tau(  34) = (  -0.0036379   0.4949515   0.4807535  )
        35           Si  tau(  35) = (   0.1248311   0.6200795   0.6021735  )
        36           Si  tau(  36) = (   0.6176363   0.3705839   0.3621099  )
        37           Si  tau(  37) = (   0.3705692   0.6078276   0.3693157  )
        38           Si  tau(  38) = (   0.3675655   0.3635862   0.6161442  )
        39           Si  tau(  39) = (   0.4994192   0.4948253   0.4883676  )
        40           Si  tau(  40) = (   0.6292842   0.6090408   0.6133856  )
        41           Si  tau(  41) = (   0.8851273   0.6071837   0.3644115  )
        42           Si  tau(  42) = (   0.8777161   0.3723554   0.6134772  )
        43           Si  tau(  43) = (   0.1301760   0.8511960   0.3654913  )
        44           Si  tau(  44) = (   0.2447887   0.7283832   0.4876833  )
        45           Si  tau(  45) = (   0.6179983   0.8613009   0.3736820  )
        46           Si  tau(  46) = (   0.3699339   0.8598134   0.6094149  )
        47           Si  tau(  47) = (   0.7544490   0.7373262   0.4901590  )
        48           Si  tau(  48) = (   0.8747858   0.8617103   0.6009408  )
        49           Si  tau(  49) = (  -0.0065369   0.2428496   0.7251750  )
        50           Si  tau(  50) = (   0.2539366  -0.0009071   0.7278363  )
        51           Si  tau(  51) = (   0.3821316   0.1147924   0.8602925  )
        52           Si  tau(  52) = (   0.4994039   0.2525833   0.7316604  )
        53           Si  tau(  53) = (   0.7509638   0.0042450   0.7239273  )
        54           Si  tau(  54) = (   0.8855483   0.1177169   0.8571900  )
        55           Si  tau(  55) = (   0.1325034   0.3612070   0.8564775  )
        56           Si  tau(  56) = (   0.2447784   0.4962202   0.7364480  )
        57           Si  tau(  57) = (   0.6351954   0.3631233   0.8524103  )
        58           Si  tau(  58) = (   0.3773464   0.6177121   0.8597565  )
        59           Si  tau(  59) = (   0.7585212   0.4971222   0.7377743  )
        60           Si  tau(  60) = (   0.8700198   0.6079446   0.8602167  )
        61           Si  tau(  61) = (   0.0036969   0.7381553   0.7228864  )
        62           Si  tau(  62) = (   0.1336537   0.8574673   0.8594066  )
        63           Si  tau(  63) = (   0.5093946   0.7290934   0.7257801  )
        64           Si  tau(  64) = (   0.6184253   0.8628096   0.8494691  )

     number of k points=     1
                       cart. coord. in units 2pi/alat
        k(    1) = (   0.0000000   0.0000000   0.0000000), wk =   2.0000000

     Dense  grid:   101944 G-vectors     FFT dimensions: (  75,  75,  75)

     Estimated max dynamical RAM per process >     150.17 MB

     Estimated total dynamical RAM >     575.77 MB

     Initial potential from superposition of free atoms

     starting charge     255.9608, renormalised to     256.0000
     Starting wfcs are  256 randomized atomic wfcs

     total cpu time spent up to now is        4.9 secs

     Self-consistent Calculation

     iteration #  1     ecut=    30.00 Ry     beta= 0.50
     Davidson diagonalization with overlap
     ethr =  1.00E-02,  avg # of iterations =  2.0

     Threshold (ethr) on eigenvalues was too large:
     Diagonalizing with lowered threshold

     Davidson diagonalization with overlap
     ethr =  6.25E-04,  avg # of iterations =  2.0

     total cpu time spent up to now is        5.2 secs

     total energy              =    -503.60561304 Ry
     estimated scf accuracy    <       1.79371823 Ry

     iteration #  2     ecut=    30.00 Ry     beta= 0.50
     Davidson diagonalization with overlap
     ethr =  7.01E-04,  avg # of iterations =  1.0

     total cpu time spent up to now is        5.3 secs

     total energy              =    -503.58980428 Ry
     estimated scf accuracy    <       0.35052820 Ry

     iteration #  3     ecut=    30.00 Ry     beta= 0.50
     Davidson diagonalization with overlap
     ethr =  1.37E-04,  avg # of iterations =  2.0

     total cpu time spent up to now is        5.4 secs

     total energy              =    -503.61407882 Ry
     estimated scf accuracy    <       0.00657985 Ry

     iteration #  4     ecut=    30.00 Ry     beta= 0.50
     Davidson diagonalization with overlap
     ethr =  2.57E-06,  avg # of iterations =  9.0

     total cpu time spent up to now is        5.5 secs

     total energy              =    -503.61878249 Ry
     estimated scf accuracy    <       0.00179766 Ry

     iteration #  5     ecut=    30.00 Ry     beta= 0.50
     Davidson diagonalization with overlap
     ethr =  7.02E-07,  avg # of iterations =  7.0

     total cpu time spent up to now is        5.7 secs

     total energy              =    -503.61910348 Ry
     estimated scf accuracy    <       0.00073833 Ry

     iteration #  6     ecut=    30.00 Ry     beta= 0.50
     Davidson diagonalization with overlap
     ethr =  2.88E-07,  avg # of iterations =  3.0

     total cpu time spent up to now is        5.8 secs

     total energy              =    -503.61923157 Ry
     estimated scf accuracy    <       0.00006199 Ry

     iteration #  7     ecut=    30.00 Ry     beta= 0.50
     Davidson diagonalization with overlap
     ethr =  2.42E-08,  avg # of iterations =  5.0

     total cpu time spent up to now is        5.9 secs

     total energy              =    -503.61924676 Ry
     estimated scf accuracy    <       0.00001668 Ry

     iteration #  8     ecut=    30.00 Ry     beta= 0.50
     Davidson diagonalization with overlap
     ethr =  6.52E-09,  avg # of iterations =  5.0

     total cpu time spent up to now is        6.0 secs

     total energy              =    -503.61925189 Ry
     estimated scf accuracy    <       0.00000388 Ry

     iteration #  9     ecut=    30.00 Ry     beta= 0.50
     Davidson diagonalization with overlap
     ethr =  1.52E-09,  avg # of iterations =  4.0

     total cpu time spent up to now is        6.2 secs

     End of self-consistent calculation

          k = 0.0000 0.0000 0.0000 ( 12739 PWs)   bands (ev):

    -5.9719  -5.0720  -5.0339  -5.0238  -4.9572  -4.8682  -4.8244  -4.2760
    -4.2237  -4.1722  -4.1122  -4.0919  -4.0630  -4.0081  -3.9894  -3.9715
    -3.9169  -3.8837  -3.8330  -3.7597  -3.7020  -3.6786  -3.5992  -2.3297
    -2.2013  -2.1512  -2.0626  -2.0459  -2.0401  -2.0112  -1.9670  -1.9325
    -1.9093  -1.8580  -1.7872  -1.7643  -1.7501  -1.7103  -1.6714  -1.6548
    -1.5727  -1.1389  -1.0746  -0.9861  -0.9566   0.0062   0.1165   0.1293
     0.1356   0.1754   0.2483   0.3210   0.3303   0.3656   0.3834   0.4446
     0.4703   1.7255   1.7948   1.8168   1.8478   1.8623   1.8805   1.9101
     1.9166   1.9441   1.9533   1.9666   1.9885   2.0084   2.0404   2.0513
     2.0755   2.0832   2.1103   2.1255   2.1678   2.1734   2.2060   2.2125
     2.2505   2.2662   2.3309   2.3441   2.3737   2.4042   2.4762   2.8260
     2.8848   2.9078   2.9120   3.0991   3.1082   3.5964   3.6549   3.7254
     3.7378   3.7793   3.8268   3.8453   3.8996   3.9278   3.9702   3.9838
     4.0023   4.0731   4.1593   4.2389   4.2442   4.3072   4.3281   4.3685
     4.4026   4.4470   4.4874   4.5131   4.5402   4.5485   4.5905   4.6201
     4.6416   4.7145   4.7826   4.8132   4.8419   5.5524   5.7707   5.8403

     highest occupied level (ev):     5.8403

!    total energy              =    -503.61925190 Ry
     estimated scf accuracy    <       0.00000093 Ry

     The total energy is the sum of the following terms:
     one-electron contribution =     135.61263808 Ry
     hartree contribution      =      38.56459018 Ry
     xc contribution           =    -152.46919343 Ry
     ewald contribution        =    -525.32728673 Ry

     convergence has been achieved in   9 iterations

     Forces acting on atoms (cartesian axes, Ry/au):

     atom    1 type  1   force =    -0.00529004   -0.04090603    0.03742741
     atom    2 type  1   force =     0.02306536   -0.00429072   -0.05977677
     atom    3 type  1   force =     0.01002197    0.00243047    0.02020683
     atom    4 type  1   force =     0.01412991   -0.06184134    0.01558659
     atom    5 type  1   force =     0.01840690    0.05767187    0.04427998
     atom    6 type  1   force =     0.02502372    0.03629023    0.09447002
     atom    7 type  1   force =    -0.01450361   -0.02054313    0.02906569
     atom    8 type  1   force =     0.00136294   -0.04278202   -0.02680864
     atom    9 type  1   force =    -0.01131801    0.06376420    0.00579038
     atom   10 type  1   force =     0.06337649   -0.08052284    0.05262142
     atom   11 type  1   force =     0.01138649   -0.00295149    0.00260517
     atom   12 type  1   force =     0.01520620    0.03602891    0.03858614
     atom   13 type  1   force =    -0.03593272    0.00011434    0.01317517
     atom   14 type  1   force =     0.01553075   -0.02168469   -0.03591450
     atom   15 type  1   force =     0.02363564    0.01903423    0.01855854
     atom   16 type  1   force =    -0.02706771   -0.00832581   -0.01546219
     atom   17 type  1   force =     0.03243637   -0.00593646   -0.01630610
     atom   18 type  1   force =    -0.03287631   -0.01619470    0.06021660
     atom   19 type  1   force =     0.00783665   -0.00249061   -0.02416752
     atom   20 type  1   force =     0.03147539   -0.01770680    0.03373710
     atom   21 type  1   force =     0.00340874   -0.01835093    0.02055752
     atom   22 type  1   force =    -0.04635388   -0.03162088   -0.01424890
     atom   23 type  1   force =    -0.05241439    0.03679519   -0.01097656
     atom   24 type  1   force =     0.02431027   -0.00496368   -0.01221692
     atom   25 type  1   force =    -0.02385534    0.00333800   -0.05110878
     atom   26 type  1   force =    -0.00776491   -0.01298464   -0.00754815
     atom   27 type  1   force =     0.01634559    0.03646035    0.04002973
     atom   28 type  1   force =     0.00567678   -0.01754745   -0.02034512
     atom   29 type  1   force =    -0.04497187    0.06273942    0.01448170
     atom   30 type  1   force =    -0.00977675    0.06348476   -0.03553789
     atom   31 type  1   force =    -0.02686832   -0.04233863    0.05528634
     atom   32 type  1   force =    -0.02905064    0.01782728   -0.02418094
     atom   33 type  1   force =    -0.03520127    0.01067296    0.03166980
     atom   34 type  1   force =     0.06445216   -0.05435956    0.04503659
     atom   35 type  1   force =    -0.03089915   -0.05719288    0.03504624
     atom   36 type  1   force =     0.05858023    0.01042538    0.02081736
     atom   37 type  1   force =     0.01236073    0.01988794   -0.02765591
     atom   38 type  1   force =     0.01600906    0.05376962   -0.01097296
     atom   39 type  1   force =    -0.01039268   -0.03893333    0.01669000
     atom   40 type  1   force =     0.02086574    0.00097356   -0.02878798
     atom   41 type  1   force =    -0.06480123    0.05025492   -0.02345467
     atom   42 type  1   force =    -0.01465828    0.00308511   -0.02503739
     atom   43 type  1   force =    -0.00235737    0.01733115   -0.00622653
     atom   44 type  1   force =     0.05256920    0.04204104   -0.01706204
     atom   45 type  1   force =     0.06669417   -0.04208641   -0.01896524
     atom   46 type  1   force =     0.03137700   -0.07205374   -0.01614309
     atom   47 type  1   force =    -0.01773668   -0.02964523   -0.02517225
     atom   48 type  1   force =     0.01382141   -0.01389736    0.03189826
     atom   49 type  1   force =     0.05869096   -0.00940762    0.02543367
     atom   50 type  1   force =    -0.02170477    0.04116082    0.03619696
     atom   51 type  1   force =    -0.05004028    0.07869173   -0.06623502
     atom   52 type  1   force =     0.01265374   -0.05362429    0.01904852
     atom   53 type  1   force =     0.02139403   -0.01649755    0.05956007
     atom   54 type  1   force =    -0.07349453    0.04635211   -0.05129465
     atom   55 type  1   force =    -0.05304213    0.02642211   -0.04644332
     atom   56 type  1   force =     0.01338837   -0.00386695   -0.00866975
     atom   57 type  1   force =    -0.06081631    0.06694679   -0.05171857
     atom   58 type  1   force =     0.01016117   -0.01721775   -0.04890374
     atom   59 type  1   force =    -0.03904495   -0.04574185   -0.02704930
     atom   60 type  1   force =     0.07511066    0.03220650   -0.02586990
     atom   61 type  1   force =    -0.02288053    0.00442042    0.04452137
     atom   62 type  1   force =    -0.03549284   -0.00116050   -0.07483535
     atom   63 type  1   force =    -0.05469496    0.03568957    0.02905256
     atom   64 type  1   force =     0.08453767   -0.06664311   -0.03655708

     Total force =     0.509213     Total SCF correction =     0.001629


     Computing stress (Cartesian axis) and pressure

          total   stress  (Ry/bohr**3)                   (kbar)     P=      -14.87
  -0.00022001  -0.00006257   0.00001984          -32.37       -9.20        2.92
  -0.00006257  -0.00005987  -0.00000567           -9.20       -8.81       -0.83
   0.00001984  -0.00000567  -0.00002344            2.92       -0.83       -3.45

 
     init_run     :      1.20s CPU      4.84s WALL (       1 calls)
     electrons    :      1.16s CPU      1.24s WALL (       1 calls)
     forces       :      0.04s CPU      0.05s WALL (       1 calls)
     stress       :      0.15s CPU      0.15s WALL (       1 calls)

     Called by init_run:
     wfcinit      :      0.77s CPU      4.26s WALL (       1 calls)
                                        4.26s GPU  (       1 calls)
     potinit      :      0.21s CPU      0.29s WALL (       1 calls)
     hinit0       :      0.19s CPU      0.22s WALL (       1 calls)

     Called by electrons:
     c_bands      :      0.73s CPU      0.76s WALL (      10 calls)
     sum_band     :      0.23s CPU      0.25s WALL (      10 calls)
     v_of_rho     :      0.12s CPU      0.20s WALL (      10 calls)
     mix_rho      :      0.08s CPU      0.09s WALL (      10 calls)

     Called by c_bands:
     init_us_2    :      0.04s CPU      0.04s WALL (      21 calls)
     init_us_2:gp :      0.04s CPU      0.04s WALL (      21 calls)
     regterg      :      0.64s CPU      0.67s WALL (      10 calls)

     Called by *egterg:
     rdiaghg      :      0.22s CPU      0.94s WALL (      49 calls)
                                        0.93s GPU  (      49 calls)
     h_psi        :      1.08s CPU      3.85s WALL (      51 calls)
                                        3.85s GPU  (      51 calls)
     g_psi        :      0.00s CPU      0.00s WALL (      40 calls)
                                        0.00s GPU  (      40 calls)

     Called by h_psi:
     h_psi:calbec :      0.69s CPU      3.40s WALL (      51 calls)
                                        3.40s GPU  (      51 calls)
     vloc_psi     :      0.35s CPU      0.42s WALL (      51 calls)
                                        0.42s GPU  (      51 calls)
     add_vuspsi   :      0.02s CPU      0.03s WALL (      51 calls)
                                        0.03s GPU  (      51 calls)

     General routines
     calbec       :      0.70s CPU      3.40s WALL (      56 calls)
     fft          :      0.25s CPU      0.36s WALL (      87 calls)
                                        0.11s GPU  (      56 calls)
     ffts         :      0.04s CPU      0.04s WALL (      10 calls)
     fftw         :      0.37s CPU      0.51s WALL (     918 calls)
                                        0.46s GPU  (     918 calls)
 
     Parallel routines
 
     PWSCF        :      2.59s CPU      6.37s WALL

 
   This run was terminated on:  15:25:50   8May2023            

=------------------------------------------------------------------------------=
   JOB DONE.
=------------------------------------------------------------------------------=
