-6810.882757457732
-6810.894109366795
-6811.603243064438
-6813.207262168836
-6810.623140038945
-6810.979598419088
-6811.220590325902
-6812.929004816045
-6811.118215793581
-6811.345646499075
-6810.6304294244555
-6809.861985386368
-6809.4677872658285
-6810.912555963918
-6811.403964440349
-6810.5374289417605
-6811.398106373631
-6809.068175168356
-6810.400899360696
-6810.974539006485
-6812.074655527549
-6811.168841756921
-6810.684232452919
-6810.653679919285
-6812.549567782798
-6810.41049259802
-6811.146779583224
-6809.228904241264
-6809.7049359728435
-6812.140163124613
-6811.286580925029
-6809.212493871996
-6806.346887663416
-6808.793608767673
-6806.771548383965
-6806.073526318867
-6804.730559897697
-6803.1839013020335
-6801.717669488864
-6801.093953549687
-6801.502418326673
-6801.165117985284
-6801.285219373626
-6799.502082015219
-6798.478364719723
-6797.940731857348
-6797.179950272844
-6794.766606379923
-6792.680128487191
-6792.941232055706
-6793.2576129654635
-6793.113558348304
-6791.225616072824
-6793.8060839859745
-6791.86315689163
-6792.413120184432
-6791.636906343853
-6790.474499291584
-6789.23641533993
-6789.37852760851
-6788.362947333132
-6790.349727341316
-6791.372499041223
-6793.192504151231
-6789.8830311552565
-6790.952051459238
-6793.0561249130615
-6793.850595687418
-6792.871982213077
-6794.365831267903
-6792.824796857113
-6790.501118147567
