0.3405824658113166 1.248264671267031 -0.4982054877758452 -0.3268957123528434 -1.5278238033174396 -0.05291021773547017 0.0689868115823586 0.18240151446078906 -1.2420202330192158 0.1550835433721265 -0.0046719515543726 0.794663966684754 -0.2874485621008146 -0.6975094344189278 -0.3579752073664673 0.9697422080112524 -0.2141752073279602 0.25577308537440463 -0.3379414286440438 0.7073994398391301 -0.8423461032520655 0.9962333123232455 0.49048446498250364 -2.1716632590167375 -0.30547739457806744 -1.290883791489138 0.2888444140070767 -0.2655304218714846 -0.22528725808072173 1.5770827974535677 0.5769406369942193 -0.2501043171244015 0.23022120504722934 -0.5023951003771605 0.6475690979450589 -0.02693899048268909 -0.04150737521516722 -0.8531179970565888 -0.3198310921965782 0.1882713429780048 1.0968927724185367 1.2220275919473729 -0.8348739632447364 0.37379520511785946 -0.9975273485443208 1.7416462552916714 0.8795077999040273 -0.7201559681738501 0.24347627028492258 0.3867476515134694 0.09200049886871252 -1.075196775502342 -0.5114368988644546 1.4033862669659443 -0.8863777875509832 0.17844690068841526 0.5054125470472457 -2.150572242674393 -0.02028574683222958 0.4213066204352615 1.3687157121669524 -0.1328321881730938 -0.6052988764219381 0.4797012583240706 -0.3772489679944149 -0.07816127899277506 -0.8660691579006182 -0.07975587717340459 -1.621521744493233 -0.17659184975754746 0.871879079714176 0.06435934011267626 -0.8410147860351517 -0.9329060130195095 -0.8159953811726787 0.46739930102826605 -0.30566637066042196 0.03546528278614537 0.07857831192553565 0.17034998261289372 0.6533880186196812 1.1674692970855185 1.384446749748964 0.10842084920826488 0.408351088715858 -0.2662996959373414 -0.8480215563702879 -0.05327942814943082 -0.002910745888891761 0.22644605427551323 -0.5913215883062397 -0.26242504347328355 -0.32206615217468404 0.7322496661135905 0.34458130255806463 -0.4482646370813442 0.4089820374316376 0.12720610023556803 0.2638172958351198 -1.4106450054108868 -1.2789741845357456 0.6164857462766931 1.536320270824225 1.0422383182984503 0.431652739556276 -0.332809249623801 0.6655668200740602 0.13549610815850213 0.30501253912650694 0.8919781644568961 -0.30500225471386183 0.21946525208230588 -0.30924560337124807 -0.2999487514503544 0.37152260703359885 -0.4753558368711813 -0.39367266076807683 1.1094592962296375 1.2508368028695813 2.2413887485373336 0.8137700913865856 2.4829024957792463 1.6764281667231258 1.1659482324553017 0.7837344642564438 -0.8791211059885699 -1.8968012753316816 -0.6773087911013368 -0.35476749906244703 1.1121160171261943 -0.44729044609353286 1.219798188396222 -0.26333367133048197 0.8992150485249675 -0.1854883809162289 -0.6563977519802825 -1.0048616774222048 1.2362614761585675 0.13374261580250515 0.19039764529238823 -0.07347672903291216 -0.349646632896114 1.0540720777085846 0.32068778376991863 0.3000852770282187 -0.8113684239236285 2.074149286528963 -0.8072081218983517 0.20299939321679877 -0.21168406547499025 0.17333863292757243 -0.5639087435109256 -0.8087911501147556 -1.104497324238672 -0.8641652560096859 -0.3135645424615761 -0.6656992318868664 -0.22332782036150572 -0.02860326555898945 -1.2660142819409679 -0.750551806856888 -1.6146792676501027 -0.4400800443880227 0.037245257504703595 0.31184884532205004 0.3400728731647498 -1.6181931943406325 -0.8702981083803012 0.04115153453764525 -1.4463180333324641 0.10837122691725207 0.37154934650647625 -0.1705495002182095 -0.06449612280085666 -0.6550414950627041 0.16246620898944278 -0.4291191745011448 -0.10347404672595083 1.2564893731696685 0.1552879460734487 -0.7093071983848043 -1.1232452942701365 -0.11673733949376025 -0.2038267742141006 -0.4447242280282534 -0.07085214692587154 1.200066000074617 0.6447861358832832 -0.5758085802723051 0.8212445453867597 -0.4901707903968267 0.8945428398602787
0.12602005034726682 -0.9411451130998502 -0.3975989924056765 0.782717335845839 -0.028777586353324627 -1.524830782127387 0.17188570253112978 0.29092829311929896 0.23672275361117295 -1.305151357151746 0.059871736654967846 -1.7403424488785835 -0.28502401181972203 1.1465585150747801 0.8895078485395326 -0.559772609855365 -0.7735004452332614 0.742360015074715 -0.20551213233632346 0.32510313922879497 0.02843048742655104 -0.9384351703678548 0.3910383084690233 0.4106529973761573 0.5845945539950513 1.214185984415767 -0.9699404400649875 0.01080917480036203 0.2421830053947958 -0.9203230341481763 -0.644081910727407 0.45565038802245394 0.07795970450493026 0.51728615855638 -2.0359277811539194 -1.3469279268678997 0.5858790771344297 -0.4050256238870509 -0.161926791546205 -0.427809968771418 -0.10923974556513445 -0.22876904598173503 1.8926414875270372 -1.3009195784585852 -0.40068740152301313 0.01971470482010798 0.37567519574939173 1.4389117135660638 0.47651617572786964 0.8009354015157626 1.0053134202476428 -0.19894142109734125 0.626732877925998 -0.34932035990494675 0.14256175675603192 -0.28534848503867627 -0.8884534391330892 0.9098241914993814 -1.132905700178036 0.38703227263342377 -0.33433931311508225 0.4380640423992585 1.261635436146982 -0.2098647528780644 0.8254393001943977 1.0269230280976185 -0.29606612856649656 0.15026401049629606 0.609589533377492 -0.7170328491638361 -0.42882735429233887 -1.0105129621707114 0.3889557149083817 2.56078892384408 -0.4557028385269442 0.3326099891288014 0.2746125866784109 -0.10644855597324249 -0.567186385820933 0.3961401484719629 0.7049324663558763 -0.16046383384743332 -0.6364058822393879 0.27368184733402545 -0.46689639324991844 -0.009042055597610234 -1.3003369664822377 -0.31659613019904836 -0.20387922471859082 -0.11681087304417301 0.7225563500852266 0.16066643677654266 -0.9710087334285019 0.011236235035451616 0.27661650448231717 -0.3547456446855761 -0.5432720410971804 0.4181287369279121 -1.1760246428546972 -1.7952370440339338 1.9598066725196246 -0.16659385800457116 -2.581901280342663 0.49425498776852944 -1.1086612258083746 1.1866551259853497 0.32199776083059384 0.953205900919126 0.8816371875422041 0.4166400681975276 -0.013530944606899279 0.1156155671844912 0.4790129740077944 0.9753096747967008 0.16303879366346113 -1.5268637533970157 -0.7971052291363949 -0.6227759501607791 -0.33839471413137845 -0.16547799923257306 -1.0135566340930415 -0.63940558829766 -0.042352753934598024 0.6238753538725449 -0.2925182633142382 0.38847209040374386 0.9175488138371487 -0.03835571696006298 0.4644330193110905 -0.7509431287580358 0.6604307843990755 -0.5325981063231021 -1.4409737383014152 0.6073225917201863 -0.04804671899558177 1.3915424802534808 0.11305757664932788 -0.07510963665064484 0.08787259274326802 -0.5172951574174446 -0.12953731947190594 0.13636334125480384 -0.3424123199312038 0.20904097142518835 -0.23955713773617454 0.5492830231779507 -0.07575086977906954 0.32418679806211265 -0.18883775700443606 2.0954570468678044 1.6281909289832925 -0.45777360501304387 0.24070899195243062 0.7503594883404239 0.2718100842326093 -0.4238887793401409 0.6648463969682679 -0.768952677961579 0.24326184028127137 0.15943359281070607 -2.7396276606542758 0.4551297396322936 -0.06811469339005043 0.11452027723778341 0.3178605987337687 -0.5118019955133573 0.33486947458693944 -0.11019233928639087 -0.1372735117738991 0.8858088024213906 0.029987033280393517 -0.637247918524709 -0.5746649535861652 0.2839510904705175 0.3466425559624675 -0.555353911962379 0.621888148239187 0.6884730352482724 -0.42578471081127317 0.44619258504366377 0.4851990482138483 0.39763858739436037 -0.015624079690502122 1.0882592651132548 -0.6869247169245459 0.07562102906942461 -1.1154779916198918 -0.11925033572360108 0.11682629966314072 -0.22424107620439443 -0.5326765249695214 1.1141831840678682
0.16873070184191585 1.3965620449552592 0.22048675136828477 -1.1850137337271849 0.9450364777344564 -0.42654807133985895 0.5679458896947767 -0.17979955806156778 0.8084787610806592 0.9439291036028906 -1.1220109076424032 0.4306546373090648 -0.48144986558406117 -1.6674719859711025 -0.15322977799283932 0.05240062508890331 -1.026734052015264 -0.19373596563700182 -0.11899065430431122 0.6202768378880091 -0.004825446413101367 1.1413111506329119 -0.8376114167805574 -0.781247436168532 0.7233413078803671 -0.08460523484590592 0.2986973955417565 0.2844398571814779 -0.6282493145705245 0.930869699315771 -0.2659780509318645 -0.49895702122988916 0.2571044025913185 0.16467195839150994 1.7953967095402499 0.40170504415425007 -0.5574886989171948 0.3534186983440365 -0.33393025060212167 0.052465673998883834 -0.16143931038682519 0.2672705444910429 -0.36067152325170787 0.40230873917652 1.8197453135879433 -0.8919758504640509 0.2817599963564696 -0.714853325014014 -0.3319103919586155 1.0488295983627227 0.4897982375487565 1.6234035348969782 0.07368267439613116 -0.2736291397192191 -0.39235239929475657 0.1441363003320034 -0.02357907287152068 -1.1179570492880035 0.5820823290961589 -0.3755229864422436 -0.5040205517957256 -0.3373444184899932 -1.0505267835594876 0.6540621618685704 -0.6172961579931304 -0.09853804287691416 -0.30141016648722935 -0.15565381405329964 -0.631733416464383 0.4782907511297892 -0.3799182872964618 0.23957102169324548 0.11754312322450723 0.13369505039402138 1.1910735667680197 0.1306241247781815 -0.5154113101311705 -0.05164574920074976 0.07164198981701855 0.49371942698003357 0.38388678502590656 -0.1119373470019556 1.2097888837893358 -1.1533405709936202 -2.3386754355056496 -2.4569947747745493 -0.13857114753940006 -0.20064760515517058 -0.5892850174921851 0.015464671294502401 -0.6013159805147902 0.2355819551385104 0.3777176801007172 -0.2588293557022252 -2.3846079363717063 -0.9916261525685373 1.2447679709676822 0.3172954702589181 1.1794570655750138 0.9797795376425966 -0.4776297205070226 0.25751166533206615 2.398805825138643 0.0795069943873921 -0.019363749238592454 0.3074784841684963 -0.07801344056100112 -0.704438043217961 0.22345791818146676 1.7156133215630198 -0.027446526246726926 0.684267481807357 -0.07027262027331768 -0.7171074111555134 0.32122822965442094 -0.3226274239947928 0.3071856355184258 0.425404444653719 0.376275548337552 0.5193191298260088 -0.6862238342027794 0.2773482404420191 -0.08256532159774167 -1.3859865834322582 -1.9593533870322901 0.10677200075093225 -1.1858382865110093 -0.1107646668500931 0.30967729159202795 3.228064756189447 -0.3381733421491918 -0.8730795277801802 -0.04341693353305426 -2.023230131081593 -0.8725115710918522 0.3430545815008931 0.6371504737148963 -0.6854854133748581 0.5722028651989177 0.17367364766948798 -0.04041877013667878 0.5101323211204182 -0.2553514244559538 -0.5734675908439543 0.8260951886108417 -1.3524128612418709 0.6521073521350447 -0.7130394117337268 0.5092892563938326 -0.7655415953975009 -0.36696738356274866 0.37728239233551153 -0.44723259627240397 0.03720540540570367 0.09740804303752901 -0.18040942373142477 0.39237039701688553 1.743042621418566 -0.5584790878549221 -0.29080667993977016 0.05198102105298145 -0.22947404246855962 -0.08974949805100672 0.3925390613842659 -0.022503066198522534 -0.052678818450954436 -0.18142192415633918 0.29015979038439055 0.2187106333044685 -0.8510814262425342 0.40518606072431507 -0.8202310165205808 2.4067885862338034 -0.20867407500407287 -0.0613884304098104 2.153645482283078 0.731998726445049 -3.2023506392527947 0.4282246877113335 0.7709416833671496 -0.2552748055817475 -0.07845849851821972 0.6459798990810682 0.2278727594197108 0.6453867455817595 -0.43554050464645633 0.08828834012444794 -0.7348025144424313 0.5163505341159882 -1.0294123701783755 0.3782560691026905 0.015651076273695625
-0.601353775731261 -0.24233238648846653 -0.06479848453262388 -0.8063162062117016 0.932281492061633 0.06731867985131633 -1.2228863404032422 1.4709206623724926 0.864393055749776 0.16209005659694664 0.3748467863108254 0.5483162883893072 -0.4225371504082529 -0.47161333910961356 -0.31534863094519233 0.5702130884623987 -0.30393344712971526 0.42395948467707634 0.6296690777361866 -0.9451529487076625 0.42736799613799303 -0.3332622780008196 0.9894517706250379 -0.7155665490309546 -1.0785134985804006 -0.09736407717347102 -0.3156324807341983 0.27833143029089485 0.049274934975728046 0.3016305100281515 -0.7633206764867823 -0.19850433355992264 -1.1623965105483014 -1.0881422799194163 0.18031377869382492 -0.30316802971860046 0.6119341223502688 -0.9807894669643497 -0.16129250039631576 0.3641653953375793 0.6042413816917014 1.6163761957365517 -0.2573417154131052 -1.4702310925046356 -2.728958096755571 0.3120830728200432 0.10748265366471167 -1.186537626570879 -0.6075953857655987 0.41052958442441556 -0.03804487058786351 0.14756846594200393 0.4335396721663437 -0.10763923384723398 0.4116750108827684 -0.0013539429247331522 -0.10974548155695939 0.4855818854745638 0.8162689465490394 0.16523657264572833 0.7538358769247985 0.029573342781742614 0.06531141961330043 -1.955276131639123 0.6609252075369908 -1.0037620166001229 0.2746550098805721 -0.3159947491696235 0.42103562616206197 0.4945444939844902 0.014022796641653271 -0.9883107150420594 0.04525604362432206 -0.44929102146332944 -0.26846070814440215 -0.08606176478677435 0.04170972103396042 0.191035021766071 0.9014616784672991 -0.6345983967170039 1.2018508598891817 0.13145639087148972 -0.25200719057406923 0.5945696629298921 0.43617556712729394 -0.9262764235181338 -0.20223783246042587 0.6161409613427647 0.16119865513092882 0.057952408145067934 0.765251832071224 0.08161684164154331 0.30119008005662323 -0.08358013601550122 0.8116057367454151 0.11384433421668134 0.1606414970758782 -0.3547016788215181 -0.6353555865980025 -0.8230489455853502 0.14262963387948985 0.4882447770187076 -0.8343448302141437 1.178449707356422 -0.8520065091599649 0.0299752062058516 0.11353065963100449 0.11004758617841047 -0.16976017154769474 -0.45190274805456365 -0.562007926943787 1.1715861474673694 -1.1714835604512341 0.022762747617812412 0.4713888818036333 1.7367801854486218 -1.4877765575875668 -0.009770963343834784 -0.3970035249135227 0.4448286148166017 -0.1967053326779709 -0.6725296245451385 0.1474442816593138 -0.639827249216111 0.8422787403492397 -1.2529888162155778 0.2398597565782579 0.6908086253599843 -0.022488410910503204 -2.518847803525604 -1.2306022209902614 -0.7587124882908094 0.6407477041478513 0.03959087491874472 -0.49067755482991615 -1.1458856573774718 -1.341856168771947 0.6943950571596622 -1.3546072977900283 0.7572806409402894 0.712340071673857 -0.2304577465380676 0.5966483998357918 -0.6642198191278625 -0.11757191957991364 -0.784396780430791 0.30687504625654244 0.5388057777957108 -0.7198721183848441 0.9677773709753978 0.5551040007351021 0.8612938479991619 0.45500966911466156 0.07769333821742103 -0.05627707732517405 -0.018149160105201 -0.9135818587696007 -0.4539526886050569 0.03060461225973439 -0.07689603912710628 -0.2790839921862032 0.6085752331803648 -0.6765300039537833 0.8009361728467109 2.214427646567457 0.8960505347540568 0.2257685685925144 0.35876505025761435 0.9394875228917692 -0.36534887412271916 -0.24596201282125382 1.8809663651819541 -1.105722969115657 1.0052092905696106 0.31735563407289213 -0.09122376860368807 -0.2534950879735054 -0.11389369939737803 0.14002330660489432 0.9898371789889145 0.8954080160740515 -0.41240340440836065 -1.115978071184762 -1.1873313261167682 -1.5525894402978937 1.2348301430286799 0.8606320460454467 0.5937993604227709 -0.4641895358417167 2.2474562948876518 1.840771023909991 0.3425449888543262
1.1386176629611486 -0.4783871674983374 0.3445792456755356 0.13945329303403725 0.06967869544306064 -0.12607224374144096 -0.19901983974376047 -0.2680200210625578 0.14539254133660767 -0.19797391497774935 0.774349423497118 -1.251034263592368 0.8315011901177616 1.5820702233658301 0.12078682697278553 0.16567545995535982 -0.05812184384339667 1.4158710296965165 -0.5368118872941335 0.7519450876599888 -0.38007152504487446 -0.00033270074907039475 -1.910424265431755 -1.1934106995416285 1.6658447347803247 -2.060533495517742 -0.7336180072160269 -0.38889555109440765 -1.114326651624268 0.7977868285844518 0.09159246479701645 -0.1618141772277407 0.24556117783840936 0.2007278235738027 0.1471051531523402 0.06250608895402138 0.11189081003473633 0.040554267273278544 -0.11371449350703641 -0.8214304361453209 0.10453231278713608 -0.6023084263350466 0.015552603022618376 1.4780143359944802 -0.10353472476055718 -1.0667005651058725 -0.18648185517774982 0.05912277430408527 1.4625676624221067 -0.1970963974688025 -0.6452355647158758 0.19689636564285443 -0.3849447939767757 0.1259781413657379 -0.6035119597248446 0.09495212529786873 -0.5136894423440572 -0.6137827455232333 -1.2641067805056099 -0.16018178383064025 -0.14213238252809715 -0.7046483594565542 -0.17337977057815301 1.030079057228097 -0.6954270979686022 0.2613456943661757 0.9936200430701146 0.9624055651405232 -1.2764681302844403 -1.419869095112316 0.7645748606088574 1.043157744788926 -0.28499778656747693 0.025557536754130177 -0.4471477498680815 -1.3737095658371181 0.6521963123044252 1.886003156274913 -0.15397436946834772 1.7013868935509924 -0.044154583030027186 -0.46864782872338645 -0.9077367128427334 -1.0714316520329548 1.9250980653938456 4.605015197561366 2.7387984798847604 0.6319943834352535 1.6296898821263226 0.44384748185025497 0.6622400696936723 1.347086563932951 -0.7963662940878414 -1.9554303978288003 1.3328801905255818 1.538755105517963 0.2849013701989287 -1.4866961800391945 0.4112132407550015 -0.27305475527298784 -3.8881507556545936 -1.3574532518792557 -0.5762592946564785 -1.900638646799901 0.3712084182272897 -0.2622782334827741 -1.3270494427764177 0.7504990992420817 -0.3539280338802872 -0.791192720306702 -0.1592173630348419 0.7749554325122331 0.7767428634299591 0.05438654517068053 -0.9160647730924546 -0.9940000521173525 2.799197806908424 0.12826848006181138 -0.06410994310603152 0.3844328873373637 0.2279897446135493 -0.7509462140818293 -0.2905272010261383 1.9290526791662197 -0.574110880854908 0.7385121020835346 0.4203329436680826 -0.23517134996365305 -0.6565229647042371 -0.14158010956905293 0.16537027001011517 0.2098549826860515 0.603711220219844 -0.20023777131126158 0.35307956983706285 -0.21355608568672255 1.3931113674024975 -1.8835593227201108 -0.06735133286146465 0.30781992666831504 0.3442992525412715 0.35604225200981265 -0.26833523831013145 -0.0364844680792791 0.04217663336804994 -0.2800191024059629 0.2751790007048422 0.6651356460739125 0.3432026770429831 -0.2931453553752758 -0.07359062890295713 -1.2012165687392926 0.2094531192619425 -0.015290607610483344 0.41425202758132523 0.3362280454973629 -0.7212931671020869 0.6898318632690119 1.7840301195745207 -0.5741653882419273 0.5850884629123343 -0.034643815326114526 1.2387757579399892 -0.6707486213853158 -2.1818826227519 -1.2463214314977311 0.5231611292799183 0.005567723895764605 -0.5601112241417063 0.4375804178946206 -0.6484077917962704 -1.5775736210470572 1.0235949921656502 -0.3753370956836826 -0.5425140798852335 0.3572964361318879 0.07323221712227387 -0.579311451219241 -0.383261749847398 0.2649375254824921 0.3540617312446741 -0.028066162108596828 0.5356975711840323 1.090001444615342 -0.0002699658319350189 -0.4104727630445511 -0.3526612513527217 0.4632685666893441 -0.05292795834728304 -0.10463052892789723 -0.10802464221111074 -3.1180994453121977
0.565647066358271 0.23832172266717663 -0.20768034363223586 0.15272455622164663 -0.8680206252000341 0.2957524539808197 0.18447510916036616 1.0302929730111159 0.33062149794386286 -0.38488103061837586 -0.8373903019086869 1.3005305705502825 -0.44986771990240587 1.8014424015136976 -0.2320042650895811 0.558510969534122 -0.018055057729497937 -0.3124312001880813 0.5072681121987458 -0.8254575550268428 0.014342127654284977 -0.37873223740816064 -0.14803486405546118 0.6394660092219503 0.5202637531274652 0.9534730385375836 -3.2598024536123598 0.270227827347154 0.4667688665331187 -0.004860413416094855 -0.22273903773757123 0.622709872809534 0.8865526225659506 -0.41052701332125424 0.39611289477845324 0.7497964167481023 0.20930296683732338 -0.5876603374045686 0.05795600768949374 0.2392154381260396 -0.12795146304202482 0.24145435475888735 3.0802764609271533 -1.4771388753680625 0.7914048363175079 -0.5821288660633781 -0.7050473946671857 -0.20083632412720895 -0.6424762568031839 0.24921677231312564 0.5968394328006753 -0.19201589762210158 -0.6531244805456494 0.3410858878102964 0.6084464209119843 -0.276949976562336 -1.0728943526214103 -0.007758303789180188 1.762283729036365 -1.6083998623992943 0.3781213432970391 -0.14685035682905676 -0.29419282280318365 0.3237242566033973 -1.6237277510056165 1.2315725553233305 0.17790002704600977 -0.06692787217080086 -0.4016343388173148 0.6442989118342194 0.25071521123552304 0.277765787595412 0.557593342815859 0.2990720052723559 -0.6883887030645821 1.634889681159707 -1.2078772685889196 -0.18534439913919692 0.05639380540869642 0.06737858655497428 -0.5157468390937182 0.04722370887365415 1.687405748780552 0.1980145384076977 0.3981898319121401 -0.22023401192753042 -0.9234340689733322 -0.78893349195888 -0.38725724416003626 0.523620328304524 0.4553248863622352 -0.9366192002050386 -1.897843086332635 1.944723552934257 0.08651119361936714 -0.8791457885789182 -1.155844054141764 1.963478207833941 1.0052864236644494 -2.567876426818481 1.4916951759156827 -0.8932881415175712 -2.0432014319971974 1.0308799558628376 1.0679444648153027 -0.3244976444343121 0.6788895053248953 0.09613097609731831 -0.2380129331775062 -0.4770309105807591 0.11139612978650491 -0.5590251901663792 -0.2800437849963113 -0.17445372036862214 0.11198748351360069 0.3197259340772816 -0.893165499896778 -0.6448496421313669 -0.5364295642540503 0.0562613935958902 -1.6029115855912135 -0.45594195112094377 0.6172244242149305 -0.6388047214888676 -0.6166045312427445 -0.6565221933732887 -0.01583233904656628 0.4080821513251875 0.05210700510788446 0.8390720604864839 -0.5004616307998735 0.800560534674847 0.18770724294441865 0.6728957496353057 -0.7943119826619739 0.26247672264682537 -0.7386517129851924 1.2096564719765295 0.3256243018395876 -0.25929678225694697 0.21578754612040257 0.9214658895033678 0.8239740285027809 -0.09556044830582897 -0.3274713823506554 -0.2576034537149241 -0.9912731401044929 -1.9271575190260357 0.20113302943202133 -0.27331032292721963 1.275633807308603 0.6615630982313059 -0.8886190181766761 0.08020427756473283 -0.5260757318235522 0.6375572222350117 0.42426081796757903 -0.013063003831545246 -0.34358962806875665 -0.007374180976884074 1.0490178031141288 0.13241386968875257 -0.016679260427893854 0.3662878409972208 0.6576740475895447 0.09112658090419144 -0.9381199531202812 0.5022824860586962 -0.9958311917888206 -0.1925396313360555 0.11372246392683641 2.2697379891039877 -0.17660110572892812 -1.1760326132744972 0.2933222472727723 -1.2584243854088522 -0.2887971057089091 0.44822015699665385 -0.5087668082314593 0.0897258439019229 -1.6532681836668945 0.7827245349346907 -1.6607786331113268 -1.465301259303186 -1.5297063650521332 1.6686876035457583 0.1349803448643482 0.6965195597018328 -0.09742655498029028 -0.9365636643767548 -0.6788856486701533 4.40057444391235
-0.06842708242414666 -0.10207510949589517 0.22398936520490456 0.32891557099634966 0.4218696920275832 -0.4594124261680475 0.4167182297336307 -1.058584106646325 -1.130356451393621 -0.2547904097461612 -0.36578801854266685 -0.9334636852951923 1.6684160950519267 -0.8893350704070943 0.9472288574000848 -0.14927233600698808 0.01822089388340088 0.06918298675356473 -0.45613606940962087 0.21580117296715734 0.6084086256955135 0.46435460066467127 0.46522131954034074 -0.4734439645604492 -0.3752987862465795 -0.506364883658186 0.49025486547020086 -0.17951159450750373 0.4741142511545964 0.6191792339484562 -0.19920650183326982 -0.7680144824180256 -0.7185027488411433 -0.2807361830776456 -0.47588625545335456 -0.8931415886373779 -1.8568275631522215 1.2866571550023003 1.220486215602182 -0.5584235520266383 -0.19448904175294246 -0.31769887634492383 -0.5958580427240124 0.12790261208196035 0.1605309396399429 0.5439844937831728 0.8225812619203123 -0.7904327022122258 0.12027363478179284 0.18856676273123654 -0.5452633604955963 -1.158326968464618 1.6488415153541087 -0.1424943938532062 0.2459141903024539 0.3846100363451763 1.6596833431646192 -0.23850787053605374 -0.26341903195543664 -0.20032158927431953 -0.630824017276236 -1.3843274505622802 0.2887279430338705 0.8767855158768577 0.8237454574317425 0.1993419989698696 -0.4350694785473088 -0.8620451243428895 1.306785550321059 -0.5110370923228748 -0.032091481217906025 -0.2598251439565912 -1.2051061336016857 -0.24969088373606674 -2.282962972434694 -0.24647031991624002 0.6649034754584484 -0.093377067501265 -0.7975675134847942 -0.41836733530127945 0.4769789742969011 0.3396368140685957 -0.18236706167842787 -0.32633546897399923 -0.06161494459831969 -0.146696861970328 1.2169059544500913 3.0285931736202487 -0.11636375820442539 -0.7905849115193738 -1.4306394462549428 -0.6208237115304146 0.380510412354506 -1.3223636072649743 0.41463846438646657 -0.8060061311704506 0.5043069726878927 -0.4163937565146764 -0.34967234392772684 0.821502684144153 -0.09021306795098656 0.49926761049177243 0.8133584577704637 0.0714157327388254 1.0278087731366816 0.9336567751426049 0.03538223615403584 0.7354846281111204 0.43395850487131715 -0.6209558662329048 0.33233179576675026 -0.6507097004565697 0.25470479201089036 0.517593919604786 0.18863026897932028 1.2194660018677839 1.684696320269189 0.5077046855155322 0.9221366903181474 -0.06891430647321034 0.3426180081841067 -0.5326986364567083 -0.3929825766795877 0.3067737447919878 -0.034473608296837405 0.3827022777995022 -1.6405689909326713 0.46141840085448277 -0.2762467798477242 1.4858490015475507 -0.7593226110709825 1.0522941598725555 -0.37746416932901444 -0.48539522338505436 0.6329235801177422 -0.2490056847435841 -0.1774212876373783 -1.5917216304126651 -0.8778252699952818 0.7424656874146439 0.8432246492022768 1.356172328284303 0.46202003899422367 3.4522940053192994 -0.4995334625586494 -0.2400050239068705 0.6201896774908415 2.2333177986037405 0.1032213072851964 -0.9948204911361191 -0.5880359755764324 0.5710404694597004 0.02410229236484236 -1.3089558184995007 -0.47205839706683217 -3.874334675707108 0.6620703768850275 -0.5724178094232013 -0.07901257124947683 -0.9041813913913074 -0.076687522660726 -0.27000491270307053 -0.01022399172085336 0.23267172347025092 0.06483319442530125 0.6161782423386034 0.768013196866445 0.1841238964685345 0.4606668674004389 -0.13832123631212306 -0.14946953961945872 -0.9430469581082533 0.8069852072542683 0.023358215109966225 -0.7753704085624646 0.803899626350409 0.5854291340812047 0.16863608524558055 -0.12152576202133909 -0.6288213850239106 -0.028482423710409013 -0.25430884212405236 0.18440903180912113 0.8075811889670543 -0.6779983609691936 -0.7250161244796288 0.3175870333574079 0.3278339078963967 -0.11367001342234617 0.8712586725213576 -1.4334221512064023 -2.0369513373224275