An instance of this daemon is already running
An instance of this daemon is already running
An instance of this daemon is already running

     Program PWSCF v.7.1 starts on 11May2023 at 15:11:45 

     This program is part of the open-source Quantum ESPRESSO suite
     for quantum simulation of materials; please cite
         "P. Giannozzi et al., J. Phys.:Condens. Matter 21 395502 (2009);
         "P. Giannozzi et al., J. Phys.:Condens. Matter 29 465901 (2017);
         "P. Giannozzi et al., J. Chem. Phys. 152 154105 (2020);
          URL http://www.quantum-espresso.org", 
     in publications or presentations arising from this work. More details at
     http://www.quantum-espresso.org/quote

     Parallel version (MPI & OpenMP), running on       4 processor cores
     Number of MPI processes:                 4
     Threads/MPI process:                     1

     MPI processes distributed on     1 nodes
     621112 MiB available memory on the printing compute node when the environment starts
 
     Reading input from pw-si-55.in
Warning: card &CELL ignored
Warning: card / ignored

     Current dimensions of program PWSCF are:
     Max number of different atomic species (ntypx) = 10
     Max number of k-points (npk) =  40000
     Max angular momentum in pseudopotentials (lmaxx) =  4

     IMPORTANT: XC functional enforced from input :
     Exchange-correlation= PBE
                           (   1   4   3   4   0   0   0)
     Any further DFT definition will be discarded
     Please, verify this is what you really want


     gamma-point specific algorithms are used
 
     K-points division:     npool     =       2
     R & G space division:  proc/nbgrp/npool/nimage =       2
     Subspace diagonalization in iterative solution of the eigenvalue problem:
     a serial algorithm will be used

     Message from routine divide_et_impera:
     suboptimal parallelization: some nodes have no k-points
 
     Parallelization info
     --------------------
     sticks:   dense  smooth     PW     G-vecs:    dense   smooth      PW
     Min        5346    5346   1378               414574   414574   54562
     Max        5347    5347   1379               414579   414579   54565
     Sum       10693   10693   2757               829153   829153  109127
 
     Using Slab Decomposition
 


     bravais-lattice index     =            0
     lattice parameter (alat)  =      33.4273  a.u.
     unit-cell volume          =   37351.0225 (a.u.)^3
     number of atoms/cell      =           64
     number of atomic types    =            1
     number of electrons       =       256.00
     number of Kohn-Sham states=          154
     kinetic-energy cutoff     =      30.0000  Ry
     charge density cutoff     =     120.0000  Ry
     scf convergence threshold =      1.0E-06
     mixing beta               =       0.5000
     number of iterations used =            8  plain     mixing
     Exchange-correlation= PBE
                           (   1   4   3   4   0   0   0)

     GPU acceleration is ACTIVE.
     GPU-aware MPI enabled

     Message from routine print_cuda_info:
     High GPU oversubscription detected. Are you sure this is what you want?

     celldm(1)=  33.427264  celldm(2)=   0.000000  celldm(3)=   0.000000
     celldm(4)=   0.000000  celldm(5)=   0.000000  celldm(6)=   0.000000

     crystal axes: (cart. coord. in units of alat)
               a(1) = (   1.000000   0.000000   0.000000 )  
               a(2) = (   0.000000   1.000000   0.000000 )  
               a(3) = (   0.000000   0.000000   1.000000 )  

     reciprocal axes: (cart. coord. in units 2 pi/alat)
               b(1) = (  1.000000  0.000000  0.000000 )  
               b(2) = (  0.000000  1.000000  0.000000 )  
               b(3) = (  0.000000  0.000000  1.000000 )  


     PseudoPot. # 1 for Si read from file:
     /home/ppiaggi/pseudos/Si_ONCV_PBE_sr.upf
     MD5 check sum: 8553c464762ac42b85b1eed164b4d029
     Pseudo is Norm-conserving, Zval =  4.0
     Generated using ONCVPSP code by D. R. Hamann
     Using radial grid of 1510 points,  4 beta functions with: 
                l(1) =   0
                l(2) =   0
                l(3) =   1
                l(4) =   1

     atomic species   valence    mass     pseudopotential
        Si             4.00    28.08500     Si( 1.00)

     No symmetry found



   Cartesian axes

     site n.     atom                  positions (alat units)
         1           Si  tau(   1) = (   0.1457350   0.1526060   0.7447740  )
         2           Si  tau(   2) = (   0.4918110   0.6102010   0.2511860  )
         3           Si  tau(   3) = (   0.6300690   0.5873130   0.2325220  )
         4           Si  tau(   4) = (   0.8795760   0.5887600   0.1792310  )
         5           Si  tau(   5) = (   0.2706770   0.0867145   0.6802050  )
         6           Si  tau(   6) = (   0.2249660   0.4079000   0.8516010  )
         7           Si  tau(   7) = (   0.5772220   0.4806630   0.4897680  )
         8           Si  tau(   8) = (   0.2978930   0.6087620   0.9217980  )
         9           Si  tau(   9) = (   0.2742820   0.4550780   0.9849620  )
        10           Si  tau(  10) = (   0.6049100   0.3618860   0.7225440  )
        11           Si  tau(  11) = (   0.1485480   0.5046400   0.0007756  )
        12           Si  tau(  12) = (   0.2188910   0.8870740   0.5647100  )
        13           Si  tau(  13) = (   0.7677840   0.5469970   0.2243410  )
        14           Si  tau(  14) = (   0.1477670   0.6678130   0.2630690  )
        15           Si  tau(  15) = (   0.2101680   0.9555390   0.6974940  )
        16           Si  tau(  16) = (   0.2277140   0.2427630   0.9567160  )
        17           Si  tau(  17) = (   0.0167818   0.4856520   0.2974060  )
        18           Si  tau(  18) = (   0.3750430   0.2956850   0.8525110  )
        19           Si  tau(  19) = (   0.0972119   0.6390530   0.1278670  )
        20           Si  tau(  20) = (   0.3809250   0.1271420   0.6237930  )
        21           Si  tau(  21) = (   0.2684690   0.2171380   0.7593990  )
        22           Si  tau(  22) = (   0.2963010   0.9842920   0.5125820  )
        23           Si  tau(  23) = (   0.2609720   0.4391320   0.2526430  )
        24           Si  tau(  24) = (   0.1887700   0.0120386   0.5754180  )
        25           Si  tau(  25) = (   0.1845950   0.5443170   0.8654200  )
        26           Si  tau(  26) = (   0.5496250   0.5261990   0.3231190  )
        27           Si  tau(  27) = (   0.5871170   0.2562440   0.4888650  )
        28           Si  tau(  28) = (   0.8444630   0.4651600   0.1592610  )
        29           Si  tau(  29) = (   0.3780720   0.3827340   0.5678970  )
        30           Si  tau(  30) = (   0.9992210   0.5451110   0.1003050  )
        31           Si  tau(  31) = (   0.2750580   0.3260820   0.4913040  )
        32           Si  tau(  32) = (   0.5515730   0.4888360   0.7484700  )
        33           Si  tau(  33) = (   0.1826250   0.6738590   0.0252090  )
        34           Si  tau(  34) = (   0.5496330   0.3329960   0.5924870  )
        35           Si  tau(  35) = (   0.3704350   0.6585210   0.2379260  )
        36           Si  tau(  36) = (   0.3544610   0.8996870   0.6077250  )
        37           Si  tau(  37) = (   0.4261160   0.6353880   0.1263660  )
        38           Si  tau(  38) = (   0.1618510   0.5315700   0.2584440  )
        39           Si  tau(  39) = (   0.3903230   0.0135081   0.7031290  )
        40           Si  tau(  40) = (   0.2021340   0.1207060   0.8635210  )
        41           Si  tau(  41) = (   0.3201940   0.1752420   0.8932860  )
        42           Si  tau(  42) = (   0.4736750   0.3900010   0.7875010  )
        43           Si  tau(  43) = (   0.3707760   0.3241210   0.4151630  )
        44           Si  tau(  44) = (   0.1866760   0.6776680   0.9001370  )
        45           Si  tau(  45) = (   0.1343800   0.2397700   0.8507230  )
        46           Si  tau(  46) = (   0.3718650   0.5559220   0.0273800  )
        47           Si  tau(  47) = (   0.4909520   0.4483610   0.6142540  )
        48           Si  tau(  48) = (   0.2703800   0.0176182   0.8015770  )
        49           Si  tau(  49) = (   0.6505370   0.4691760   0.5888550  )
        50           Si  tau(  50) = (   0.1760470   0.3550410   0.9460200  )
        51           Si  tau(  51) = (   0.8774410   0.4873400   0.2791440  )
        52           Si  tau(  52) = (   0.4616670   0.4208730   0.4580020  )
        53           Si  tau(  53) = (   0.3691110   0.5316630   0.1840550  )
        54           Si  tau(  54) = (   0.6828860   0.3465980   0.4994470  )
        55           Si  tau(  55) = (   0.2322820   0.5317920   0.1018570  )
        56           Si  tau(  56) = (   0.0266461   0.6055740   0.2331030  )
        57           Si  tau(  57) = (   0.1344800   0.3894230   0.2870740  )
        58           Si  tau(  58) = (   0.2922480   0.3577910   0.7510000  )
        59           Si  tau(  59) = (   0.4017660   0.0183294   0.5615430  )
        60           Si  tau(  60) = (   0.2499670   0.3375300   0.3410280  )
        61           Si  tau(  61) = (   0.7017530   0.3397450   0.6273040  )
        62           Si  tau(  62) = (   0.3167380   0.9049500   0.7420550  )
        63           Si  tau(  63) = (   0.6995520   0.2172480   0.5584890  )
        64           Si  tau(  64) = (   0.5304240   0.5713800   0.6421290  )

     number of k points=     1  Fermi-Dirac smearing, width (Ry)=  0.0100
                       cart. coord. in units 2pi/alat
        k(    1) = (   0.0000000   0.0000000   0.0000000), wk =   2.0000000

     Dense  grid:   414577 G-vectors     FFT dimensions: ( 120, 120, 120)

     Estimated max dynamical RAM per process >     655.39 MB

     Estimated total dynamical RAM >       2.46 GB

     Initial potential from superposition of free atoms

     starting charge     255.9608, renormalised to     256.0000

     negative rho (up, down):  5.016E-05 0.000E+00
     Starting wfcs are  256 randomized atomic wfcs

     total cpu time spent up to now is        4.8 secs

     Self-consistent Calculation

     iteration #  1     ecut=    30.00 Ry     beta= 0.50
     Davidson diagonalization with overlap
     ethr =  1.00E-02,  avg # of iterations =  2.0

     total cpu time spent up to now is        5.1 secs

     total energy              =    -498.36214442 Ry
     estimated scf accuracy    <       2.62394222 Ry

     iteration #  2     ecut=    30.00 Ry     beta= 0.50
     Davidson diagonalization with overlap
     ethr =  1.02E-03,  avg # of iterations =  4.0

     total cpu time spent up to now is        5.4 secs

     total energy              =    -496.90542605 Ry
     estimated scf accuracy    <      21.24717772 Ry

     iteration #  3     ecut=    30.00 Ry     beta= 0.50
     Davidson diagonalization with overlap
     ethr =  1.02E-03,  avg # of iterations =  4.0

     total cpu time spent up to now is        5.7 secs

     total energy              =    -498.33110271 Ry
     estimated scf accuracy    <      11.86671629 Ry

     iteration #  4     ecut=    30.00 Ry     beta= 0.50
     Davidson diagonalization with overlap
     ethr =  1.02E-03,  avg # of iterations =  2.0

     total cpu time spent up to now is        5.9 secs

     total energy              =    -498.79676214 Ry
     estimated scf accuracy    <       5.21901965 Ry

     iteration #  5     ecut=    30.00 Ry     beta= 0.50
     Davidson diagonalization with overlap
     ethr =  1.02E-03,  avg # of iterations =  2.0

     total cpu time spent up to now is        6.2 secs

     total energy              =    -499.03429429 Ry
     estimated scf accuracy    <       2.13248114 Ry

     iteration #  6     ecut=    30.00 Ry     beta= 0.50
     Davidson diagonalization with overlap
     ethr =  8.33E-04,  avg # of iterations =  1.0

     total cpu time spent up to now is        6.4 secs

     total energy              =    -499.12425551 Ry
     estimated scf accuracy    <       1.17524371 Ry

     iteration #  7     ecut=    30.00 Ry     beta= 0.50
     Davidson diagonalization with overlap
     ethr =  4.59E-04,  avg # of iterations =  1.0

     total cpu time spent up to now is        6.7 secs

     total energy              =    -499.18128488 Ry
     estimated scf accuracy    <       0.73846345 Ry

     iteration #  8     ecut=    30.00 Ry     beta= 0.50
     Davidson diagonalization with overlap
     ethr =  2.88E-04,  avg # of iterations =  1.0

     total cpu time spent up to now is        6.9 secs

     total energy              =    -499.21216130 Ry
     estimated scf accuracy    <       0.19726506 Ry

     iteration #  9     ecut=    30.00 Ry     beta= 0.50
     Davidson diagonalization with overlap
     ethr =  7.71E-05,  avg # of iterations =  2.0

     total cpu time spent up to now is        7.2 secs

     total energy              =    -499.22508258 Ry
     estimated scf accuracy    <       0.05160508 Ry

     iteration # 10     ecut=    30.00 Ry     beta= 0.50
     Davidson diagonalization with overlap
     ethr =  2.02E-05,  avg # of iterations =  2.0

     total cpu time spent up to now is        7.5 secs

     total energy              =    -499.22921386 Ry
     estimated scf accuracy    <       0.02891903 Ry

     iteration # 11     ecut=    30.00 Ry     beta= 0.50
     Davidson diagonalization with overlap
     ethr =  1.13E-05,  avg # of iterations =  2.0

     total cpu time spent up to now is        7.7 secs

     total energy              =    -499.23044702 Ry
     estimated scf accuracy    <       0.01894349 Ry

     iteration # 12     ecut=    30.00 Ry     beta= 0.50
     Davidson diagonalization with overlap
     ethr =  7.40E-06,  avg # of iterations = 12.0

     total cpu time spent up to now is        8.1 secs

     total energy              =    -499.23177302 Ry
     estimated scf accuracy    <       0.01235496 Ry

     iteration # 13     ecut=    30.00 Ry     beta= 0.50
     Davidson diagonalization with overlap
     ethr =  4.83E-06,  avg # of iterations =  7.0

     total cpu time spent up to now is        8.4 secs

     total energy              =    -499.23227903 Ry
     estimated scf accuracy    <       0.00944542 Ry

     iteration # 14     ecut=    30.00 Ry     beta= 0.50
     Davidson diagonalization with overlap
     ethr =  3.69E-06,  avg # of iterations =  2.0

     total cpu time spent up to now is        8.6 secs

     total energy              =    -499.23270723 Ry
     estimated scf accuracy    <       0.00643327 Ry

     iteration # 15     ecut=    30.00 Ry     beta= 0.50
     Davidson diagonalization with overlap
     ethr =  2.51E-06,  avg # of iterations =  2.0

     total cpu time spent up to now is        8.9 secs

     total energy              =    -499.23294489 Ry
     estimated scf accuracy    <       0.00256998 Ry

     iteration # 16     ecut=    30.00 Ry     beta= 0.50
     Davidson diagonalization with overlap
     ethr =  1.00E-06,  avg # of iterations =  2.0

     total cpu time spent up to now is        9.1 secs

     total energy              =    -499.23299535 Ry
     estimated scf accuracy    <       0.00268266 Ry

     iteration # 17     ecut=    30.00 Ry     beta= 0.50
     Davidson diagonalization with overlap
     ethr =  1.00E-06,  avg # of iterations =  2.0

     total cpu time spent up to now is        9.4 secs

     total energy              =    -499.23309120 Ry
     estimated scf accuracy    <       0.00127950 Ry

     iteration # 18     ecut=    30.00 Ry     beta= 0.50
     Davidson diagonalization with overlap
     ethr =  5.00E-07,  avg # of iterations =  1.0

     total cpu time spent up to now is        9.7 secs

     total energy              =    -499.23312001 Ry
     estimated scf accuracy    <       0.00100319 Ry

     iteration # 19     ecut=    30.00 Ry     beta= 0.50
     Davidson diagonalization with overlap
     ethr =  3.92E-07,  avg # of iterations =  2.0

     total cpu time spent up to now is        9.9 secs

     total energy              =    -499.23317218 Ry
     estimated scf accuracy    <       0.00030015 Ry

     iteration # 20     ecut=    30.00 Ry     beta= 0.50
     Davidson diagonalization with overlap
     ethr =  1.17E-07,  avg # of iterations =  1.0

     total cpu time spent up to now is       10.2 secs

     total energy              =    -499.23319290 Ry
     estimated scf accuracy    <       0.00003485 Ry

     iteration # 21     ecut=    30.00 Ry     beta= 0.50
     Davidson diagonalization with overlap
     ethr =  1.36E-08,  avg # of iterations =  4.0

     total cpu time spent up to now is       10.5 secs

     total energy              =    -499.23319522 Ry
     estimated scf accuracy    <       0.00004089 Ry

     iteration # 22     ecut=    30.00 Ry     beta= 0.50
     Davidson diagonalization with overlap
     ethr =  1.36E-08,  avg # of iterations =  3.0

     total cpu time spent up to now is       10.8 secs

     total energy              =    -499.23319624 Ry
     estimated scf accuracy    <       0.00004481 Ry

     iteration # 23     ecut=    30.00 Ry     beta= 0.50
     Davidson diagonalization with overlap
     ethr =  1.36E-08,  avg # of iterations =  2.0

     total cpu time spent up to now is       11.0 secs

     total energy              =    -499.23319870 Ry
     estimated scf accuracy    <       0.00001616 Ry

     iteration # 24     ecut=    30.00 Ry     beta= 0.50
     Davidson diagonalization with overlap
     ethr =  6.31E-09,  avg # of iterations =  2.0

     total cpu time spent up to now is       11.3 secs

     total energy              =    -499.23319930 Ry
     estimated scf accuracy    <       0.00001713 Ry

     iteration # 25     ecut=    30.00 Ry     beta= 0.50
     Davidson diagonalization with overlap
     ethr =  6.31E-09,  avg # of iterations =  1.0

     total cpu time spent up to now is       11.5 secs

     total energy              =    -499.23319994 Ry
     estimated scf accuracy    <       0.00000594 Ry

     iteration # 26     ecut=    30.00 Ry     beta= 0.50
     Davidson diagonalization with overlap
     ethr =  2.32E-09,  avg # of iterations =  2.0

     total cpu time spent up to now is       11.8 secs

     total energy              =    -499.23320001 Ry
     estimated scf accuracy    <       0.00000623 Ry

     iteration # 27     ecut=    30.00 Ry     beta= 0.50
     Davidson diagonalization with overlap
     ethr =  2.32E-09,  avg # of iterations =  1.0

     total cpu time spent up to now is       12.1 secs

     total energy              =    -499.23320018 Ry
     estimated scf accuracy    <       0.00000571 Ry

     iteration # 28     ecut=    30.00 Ry     beta= 0.50
     Davidson diagonalization with overlap
     ethr =  2.23E-09,  avg # of iterations =  1.0

     total cpu time spent up to now is       12.3 secs

     total energy              =    -499.23320029 Ry
     estimated scf accuracy    <       0.00000362 Ry

     iteration # 29     ecut=    30.00 Ry     beta= 0.50
     Davidson diagonalization with overlap
     ethr =  1.42E-09,  avg # of iterations =  1.0

     total cpu time spent up to now is       12.5 secs

     End of self-consistent calculation

          k = 0.0000 0.0000 0.0000 ( 51860 PWs)   bands (ev):

   -14.8037 -14.2121 -14.0269 -13.8372 -13.6796 -13.4095 -13.2310 -13.0409
   -12.9268 -12.6277 -12.5848 -12.4534 -12.2555 -11.8675 -11.8141 -11.6929
   -11.5331 -11.3892 -11.1266 -11.0854 -10.8545 -10.7253 -10.6141 -10.4995
   -10.3141 -10.1453  -9.9714  -9.8243  -9.5533  -9.4581  -9.4205  -9.2108
    -9.1443  -9.0229  -8.9819  -8.8360  -8.6784  -8.6328  -8.5534  -8.4799
    -8.3804  -8.1786  -8.1113  -7.9546  -7.8641  -7.7045  -7.6707  -7.6400
    -7.5350  -7.5102  -7.3859  -7.2245  -7.1306  -7.0404  -6.9837  -6.9340
    -6.8966  -6.5897  -6.4471  -6.3676  -6.2912  -6.0021  -5.9398  -5.8958
    -5.8588  -5.6330  -5.5915  -5.5551  -5.4660  -5.3712  -5.3170  -5.3147
    -5.2652  -5.2407  -5.0881  -5.0274  -4.9965  -4.8973  -4.8175  -4.7879
    -4.7257  -4.6596  -4.6086  -4.5301  -4.5221  -4.4244  -4.3787  -4.2987
    -4.2549  -4.2124  -4.1684  -4.0644  -3.9941  -3.8834  -3.8548  -3.8007
    -3.7612  -3.7262  -3.6925  -3.6148  -3.5792  -3.5282  -3.4764  -3.4219
    -3.3566  -3.2879  -3.2466  -3.2053  -3.1715  -3.0594  -2.9539  -2.9313
    -2.8836  -2.8335  -2.7821  -2.6827  -2.6586  -2.5833  -2.5624  -2.5002
    -2.4456  -2.4338  -2.4156  -2.3693  -2.3298  -2.2440  -2.1994  -2.1828
    -2.1077  -2.0794  -2.0591  -1.9702  -1.9130  -1.8673  -1.8046  -1.7537
    -1.6501  -1.6243  -1.6120  -1.5269  -1.4871  -1.4620  -1.3551  -1.2805
    -1.2428  -1.0852  -1.0572  -0.9907  -0.9576  -0.8926  -0.8595  -0.7260
    -0.6225  -0.5895

     the Fermi energy is    -2.1355 ev

!    total energy              =    -499.23319988 Ry
     estimated scf accuracy    <       0.00000079 Ry
     smearing contrib. (-TS)   =      -0.18432345 Ry
     internal energy E=F+TS    =    -499.04887643 Ry

     The total energy is F=E-TS. E is the sum of the following terms:
     one-electron contribution =   -1689.61995079 Ry
     hartree contribution      =     876.94692591 Ry
     xc contribution           =    -147.05975919 Ry
     ewald contribution        =     460.68390764 Ry

     convergence has been achieved in  29 iterations

     Forces acting on atoms (cartesian axes, Ry/au):

     atom    1 type  1   force =    -0.01086903    0.01040314   -0.00697004
     atom    2 type  1   force =     0.00212501    0.00161548   -0.02378701
     atom    3 type  1   force =    -0.01660912   -0.02496908    0.01926681
     atom    4 type  1   force =     0.07616018    0.08394036   -0.00391641
     atom    5 type  1   force =    -0.05808573    0.00831627   -0.00113643
     atom    6 type  1   force =     0.05190732    0.06250322   -0.09184900
     atom    7 type  1   force =    -0.04773214    0.00259948   -0.08025386
     atom    8 type  1   force =     0.00322991    0.00313892    0.01672001
     atom    9 type  1   force =     0.03210535    0.01225889   -0.00893005
     atom   10 type  1   force =    -0.02508240    0.00241537   -0.00869550
     atom   11 type  1   force =    -0.04748496   -0.00016753   -0.03497719
     atom   12 type  1   force =     0.02500967   -0.05623927    0.00229959
     atom   13 type  1   force =    -0.06023344    0.04294901    0.03775310
     atom   14 type  1   force =    -0.01440005   -0.00703400   -0.02492243
     atom   15 type  1   force =    -0.06087498    0.01488886   -0.04381719
     atom   16 type  1   force =     0.02274936   -0.05716319   -0.00186284
     atom   17 type  1   force =     0.01630638   -0.01322832   -0.01208189
     atom   18 type  1   force =    -0.01403228    0.03127249   -0.02279873
     atom   19 type  1   force =     0.04547423   -0.00222602   -0.01079066
     atom   20 type  1   force =     0.02124161    0.04927114    0.03105236
     atom   21 type  1   force =    -0.00637052    0.01216975    0.02549402
     atom   22 type  1   force =    -0.04371612   -0.03967328   -0.06756460
     atom   23 type  1   force =     0.01141579    0.02753783   -0.00862359
     atom   24 type  1   force =    -0.06255683    0.09822898    0.04138480
     atom   25 type  1   force =     0.01016265   -0.03960665    0.04769831
     atom   26 type  1   force =     0.04224424   -0.01897242    0.02892660
     atom   27 type  1   force =    -0.02907353   -0.02506937   -0.00367098
     atom   28 type  1   force =     0.01844721   -0.10084096   -0.08178298
     atom   29 type  1   force =     0.01071447   -0.00179866   -0.02638151
     atom   30 type  1   force =    -0.00848216    0.00292962    0.02290828
     atom   31 type  1   force =    -0.06298032    0.00888974    0.04344431
     atom   32 type  1   force =     0.00628266    0.00656857   -0.02513284
     atom   33 type  1   force =     0.01536985   -0.03406357    0.05870190
     atom   34 type  1   force =     0.02837749   -0.00485324    0.00282285
     atom   35 type  1   force =    -0.04601445    0.02299493    0.04177353
     atom   36 type  1   force =     0.00895237   -0.00803273    0.01316500
     atom   37 type  1   force =     0.04010136    0.02624919   -0.07407110
     atom   38 type  1   force =    -0.00242608   -0.00874428   -0.02177306
     atom   39 type  1   force =     0.01050488    0.00384114   -0.00282670
     atom   40 type  1   force =    -0.00446796   -0.01438883    0.00525880
     atom   41 type  1   force =     0.06250076   -0.00613802   -0.00422875
     atom   42 type  1   force =    -0.01460651   -0.04089877   -0.00096867
     atom   43 type  1   force =     0.06988915    0.01864137   -0.04815988
     atom   44 type  1   force =    -0.00292617    0.00703592   -0.05001062
     atom   45 type  1   force =    -0.00473569    0.02776324   -0.00460766
     atom   46 type  1   force =    -0.02254352   -0.01528477    0.01318988
     atom   47 type  1   force =    -0.02225927    0.01179405    0.00186483
     atom   48 type  1   force =    -0.00301750    0.03837050    0.02121133
     atom   49 type  1   force =     0.04072434   -0.01045322    0.08832263
     atom   50 type  1   force =    -0.09641841    0.01703638    0.08960574
     atom   51 type  1   force =     0.02794762   -0.00203743    0.05258916
     atom   52 type  1   force =    -0.01834632   -0.02432291    0.00819314
     atom   53 type  1   force =    -0.03616518   -0.05165854    0.00505238
     atom   54 type  1   force =    -0.00234983    0.02567465   -0.05410221
     atom   55 type  1   force =     0.01662861    0.03569949    0.01686004
     atom   56 type  1   force =    -0.05756916   -0.03428981    0.02099013
     atom   57 type  1   force =    -0.02658995    0.02930552    0.00093298
     atom   58 type  1   force =     0.03121639   -0.02786279   -0.00693808
     atom   59 type  1   force =     0.08729141   -0.02403340    0.00432134
     atom   60 type  1   force =     0.00977921    0.00105079    0.02071533
     atom   61 type  1   force =    -0.00252411   -0.01354638    0.05871192
     atom   62 type  1   force =     0.07425718   -0.07012475    0.00959502
     atom   63 type  1   force =    -0.00559484    0.03638897    0.00676842
     atom   64 type  1   force =     0.01802191   -0.00602107    0.00003793

     Total force =     0.499759     Total SCF correction =     0.001201


     Computing stress (Cartesian axis) and pressure

          total   stress  (Ry/bohr**3)                   (kbar)     P=       -0.46
  -0.00001061  -0.00000860  -0.00000172           -1.56       -1.26       -0.25
  -0.00000860   0.00000386   0.00000114           -1.26        0.57        0.17
  -0.00000172   0.00000114  -0.00000259           -0.25        0.17       -0.38

 
     init_run     :      1.49s CPU      4.72s WALL (       1 calls)
     electrons    :      7.37s CPU      7.74s WALL (       1 calls)
     forces       :      0.09s CPU      0.09s WALL (       1 calls)
     stress       :      0.59s CPU      0.60s WALL (       1 calls)

     Called by init_run:
     wfcinit      :      0.57s CPU      3.54s WALL (       1 calls)
                                        3.54s GPU  (       1 calls)
     potinit      :      0.09s CPU      0.19s WALL (       1 calls)
     hinit0       :      0.75s CPU      0.78s WALL (       1 calls)

     Called by electrons:
     c_bands      :      3.33s CPU      3.43s WALL (      29 calls)
     sum_band     :      1.64s CPU      1.78s WALL (      29 calls)
     v_of_rho     :      0.93s CPU      1.06s WALL (      30 calls)
     mix_rho      :      1.18s CPU      1.24s WALL (      29 calls)

     Called by c_bands:
     init_us_2    :      0.08s CPU      0.08s WALL (      59 calls)
     init_us_2:gp :      0.07s CPU      0.08s WALL (      59 calls)
     regterg      :      2.79s CPU      2.88s WALL (      29 calls)

     Called by *egterg:
     rdiaghg      :      0.41s CPU      1.01s WALL (     100 calls)
                                        0.99s GPU  (     100 calls)
     h_psi        :      2.34s CPU      4.79s WALL (     101 calls)
                                        4.78s GPU  (     101 calls)
     g_psi        :      0.00s CPU      0.02s WALL (      71 calls)
                                        0.02s GPU  (      71 calls)

     Called by h_psi:
     h_psi:calbec :      0.52s CPU      2.72s WALL (     101 calls)
                                        2.72s GPU  (     101 calls)
     vloc_psi     :      1.70s CPU      1.93s WALL (     101 calls)
                                        1.92s GPU  (     101 calls)
     add_vuspsi   :      0.04s CPU      0.10s WALL (     101 calls)
                                        0.10s GPU  (     101 calls)

     General routines
     calbec       :      0.54s CPU      2.74s WALL (     106 calls)
     fft          :      1.86s CPU      2.05s WALL (     246 calls)
                                        0.18s GPU  (     156 calls)
     ffts         :      0.38s CPU      0.40s WALL (      29 calls)
     fftw         :      1.86s CPU      2.36s WALL (    2935 calls)
                                        1.96s GPU  (    2935 calls)
 
     Parallel routines
 
     PWSCF        :      9.57s CPU     13.26s WALL

 
   This run was terminated on:  15:11:58  11May2023            

=------------------------------------------------------------------------------=
   JOB DONE.
=------------------------------------------------------------------------------=
