11.050163633384436 0.0 0.0 0.0 11.042649522113734 0.0 0.0 0.0 11.043853989949774
11.04555344154526 0.0 0.0 0.0 10.848798998091015 0.0 0.0 0.0 10.928271755102934
10.98737622843608 0.0 0.0 0.0 10.991903027442197 0.0 0.0 0.0 11.039038871462186
10.994126942083048 0.0 0.0 0.0 10.861141982591612 0.0 0.0 0.0 11.053814057251616
10.884941279506252 0.0 0.0 0.0 10.938038023067683 0.0 0.0 0.0 10.90905142444036
10.910903242525285 0.0 0.0 0.0 10.995560940784038 0.0 0.0 0.0 10.845786971973894
10.930872802836923 0.0 0.0 0.0 10.93282942906863 0.0 0.0 0.0 10.870698348057307
10.993646978355072 0.0 0.0 0.0 10.895374768015555 0.0 0.0 0.0 11.009642734708578
10.880285578427157 0.0 0.0 0.0 10.900522909603032 0.0 0.0 0.0 10.902252875010001
10.913683010400765 0.0 0.0 0.0 10.95271034084596 0.0 0.0 0.0 10.910441646546676
10.985903528265235 0.0 0.0 0.0 10.871430413500711 0.0 0.0 0.0 10.899576298340126
10.849697548252697 0.0 0.0 0.0 10.968197944874714 0.0 0.0 0.0 10.8714186427443
10.859764086287207 0.0 0.0 0.0 10.855908870036576 0.0 0.0 0.0 10.997357297260466
10.950156020309327 0.0 0.0 0.0 10.90775701619869 0.0 0.0 0.0 10.920601549210513
10.984007486327702 0.0 0.0 0.0 10.930317657734532 0.0 0.0 0.0 10.879231038915622
10.850482847229895 0.0 0.0 0.0 10.853857347395383 0.0 0.0 0.0 10.95923723680768
10.941048880553561 0.0 0.0 0.0 10.855292939427782 0.0 0.0 0.0 11.006749879081285
10.944841493605832 0.0 0.0 0.0 10.949941789741853 0.0 0.0 0.0 10.94811400121242
11.037641713103167 0.0 0.0 0.0 11.038557837365355 0.0 0.0 0.0 11.014804832398756
11.03664791830588 0.0 0.0 0.0 11.013470957677438 0.0 0.0 0.0 10.845724945967106
10.924678254435936 0.0 0.0 0.0 10.900654886954431 0.0 0.0 0.0 10.897268236695556
11.04493059997103 0.0 0.0 0.0 10.900242009111409 0.0 0.0 0.0 10.957885501912658
10.88692833992362 0.0 0.0 0.0 10.920100810575367 0.0 0.0 0.0 11.038060679138438
10.935176071895254 0.0 0.0 0.0 10.901933136636693 0.0 0.0 0.0 10.909226899076648
10.854789820528685 0.0 0.0 0.0 11.032309053253611 0.0 0.0 0.0 10.922914481442323
10.937992882175319 0.0 0.0 0.0 11.026032786883947 0.0 0.0 0.0 10.955690554658677
10.965457708466078 0.0 0.0 0.0 10.995810095403113 0.0 0.0 0.0 10.936355383707808
10.991919214769796 0.0 0.0 0.0 10.908743362071633 0.0 0.0 0.0 11.016991782498685
10.944638289557824 0.0 0.0 0.0 10.844604295591266 0.0 0.0 0.0 10.932697689183918
11.021912449762068 0.0 0.0 0.0 10.958139664327746 0.0 0.0 0.0 10.841186151323319
10.957401514646103 0.0 0.0 0.0 10.95977927077478 0.0 0.0 0.0 11.029073877953401
11.018934769610661 0.0 0.0 0.0 11.057071302848284 0.0 0.0 0.0 10.984941355846413
10.944712374366993 0.0 0.0 0.0 10.849143145914022 0.0 0.0 0.0 10.95157470902572
10.920388743985024 0.0 0.0 0.0 11.058935715979962 0.0 0.0 0.0 10.970513328319916
11.015676096361622 0.0 0.0 0.0 10.90381190560307 0.0 0.0 0.0 10.893358028987622
10.968626950766907 0.0 0.0 0.0 11.024347575676803 0.0 0.0 0.0 11.045264747271917
10.957227944521764 0.0 0.0 0.0 10.882751666182848 0.0 0.0 0.0 10.965456822708099
10.933738826597367 0.0 0.0 0.0 10.874937179187926 0.0 0.0 0.0 10.981213120582453
10.911399610746722 0.0 0.0 0.0 10.84532017470404 0.0 0.0 0.0 10.986077229682673
11.007885549500239 0.0 0.0 0.0 10.91317370223234 0.0 0.0 0.0 10.987587008546962
10.905776044553548 0.0 0.0 0.0 10.901620943880573 0.0 0.0 0.0 10.943902637605307
10.954662493415666 0.0 0.0 0.0 11.041259100426117 0.0 0.0 0.0 11.034116660480409
10.913978820460237 0.0 0.0 0.0 10.878846722637176 0.0 0.0 0.0 10.857357098339689
10.856476308291708 0.0 0.0 0.0 10.938344996132535 0.0 0.0 0.0 10.84590210036743
10.987728660456845 0.0 0.0 0.0 10.985640992011358 0.0 0.0 0.0 11.017846024715158
10.929564147600665 0.0 0.0 0.0 10.955587439836101 0.0 0.0 0.0 11.052434307747992
11.051395557925485 0.0 0.0 0.0 11.041913460536785 0.0 0.0 0.0 10.90950669035728
10.871749420879208 0.0 0.0 0.0 10.945753419187133 0.0 0.0 0.0 10.985859302800757
11.05248354626586 0.0 0.0 0.0 11.042923147998339 0.0 0.0 0.0 10.906767603191891
11.032085352415455 0.0 0.0 0.0 10.969378979272326 0.0 0.0 0.0 10.945284904862651
10.958248198179469 0.0 0.0 0.0 11.042637667553649 0.0 0.0 0.0 10.983967206700598
10.896716001569327 0.0 0.0 0.0 11.032598050108897 0.0 0.0 0.0 11.019434817179002
11.05215175215622 0.0 0.0 0.0 11.018343219946374 0.0 0.0 0.0 10.86849814649064
10.991411204649777 0.0 0.0 0.0 10.894510923469584 0.0 0.0 0.0 10.847610571859345
10.958859397855118 0.0 0.0 0.0 10.843922880490412 0.0 0.0 0.0 10.846991361121813
10.876935357521072 0.0 0.0 0.0 10.995929030332352 0.0 0.0 0.0 10.843575796779554
10.96538626954295 0.0 0.0 0.0 10.948324128507542 0.0 0.0 0.0 10.96778768913598
11.046985395071065 0.0 0.0 0.0 10.87219999215025 0.0 0.0 0.0 11.023179141544686
10.86551306747876 0.0 0.0 0.0 10.930336718439337 0.0 0.0 0.0 10.995355948635131
11.028550448663653 0.0 0.0 0.0 10.946343633619314 0.0 0.0 0.0 11.058195192269661
11.011388173442331 0.0 0.0 0.0 10.855742201610724 0.0 0.0 0.0 10.93528846977567
10.879778626661556 0.0 0.0 0.0 10.87475216893604 0.0 0.0 0.0 10.915605737679153
10.87339410364277 0.0 0.0 0.0 10.864303946172125 0.0 0.0 0.0 10.99947110827451
10.982664434572902 0.0 0.0 0.0 10.974416453582538 0.0 0.0 0.0 10.93594418006823
10.957497824898024 0.0 0.0 0.0 10.867635385236035 0.0 0.0 0.0 11.024853564027671
10.952544726227835 0.0 0.0 0.0 11.045049918985555 0.0 0.0 0.0 10.862010991520835
10.96664624047604 0.0 0.0 0.0 10.961305483756927 0.0 0.0 0.0 11.031097220431317
10.964872438473638 0.0 0.0 0.0 10.91650638614753 0.0 0.0 0.0 11.038929186923088
10.945019297147837 0.0 0.0 0.0 10.949605260233342 0.0 0.0 0.0 11.028026323497407
10.860124985143305 0.0 0.0 0.0 11.020724513423604 0.0 0.0 0.0 10.854510300525986
10.849513394584191 0.0 0.0 0.0 10.938305812205467 0.0 0.0 0.0 10.945499039586078
11.053011135942587 0.0 0.0 0.0 10.96405650232052 0.0 0.0 0.0 10.877787750404488
11.010586999148885 0.0 0.0 0.0 10.944347307762005 0.0 0.0 0.0 10.868539416272863
10.970890770864242 0.0 0.0 0.0 10.957133273837579 0.0 0.0 0.0 10.955202397061907
11.002529217797285 0.0 0.0 0.0 10.909986944546393 0.0 0.0 0.0 11.00715028006876
10.963827842664347 0.0 0.0 0.0 10.933085269393516 0.0 0.0 0.0 11.005874122440966
10.940804929860512 0.0 0.0 0.0 11.051941626338033 0.0 0.0 0.0 10.932446154894098
10.919836812156712 0.0 0.0 0.0 10.976150410597004 0.0 0.0 0.0 11.020069994255499
11.046077326981532 0.0 0.0 0.0 10.972168023586699 0.0 0.0 0.0 10.85477031375554
10.890188071527078 0.0 0.0 0.0 10.91132592657391 0.0 0.0 0.0 10.972452552219394
11.008478227973596 0.0 0.0 0.0 10.850407489098123 0.0 0.0 0.0 10.892911223536329
10.904080031600776 0.0 0.0 0.0 10.976286849570036 0.0 0.0 0.0 10.897341310141247
10.97951847606924 0.0 0.0 0.0 10.944109528983915 0.0 0.0 0.0 10.941463465031184
10.989233111260194 0.0 0.0 0.0 10.902725868208353 0.0 0.0 0.0 11.017255655693909
10.978294489186318 0.0 0.0 0.0 10.876009719430568 0.0 0.0 0.0 10.861123152103232
10.89339858965016 0.0 0.0 0.0 10.886067332399325 0.0 0.0 0.0 10.980425950982875
11.034148614350825 0.0 0.0 0.0 10.92057412266331 0.0 0.0 0.0 10.910257193708894
11.009610667199471 0.0 0.0 0.0 10.892534467364472 0.0 0.0 0.0 10.888185671150929
10.879496046032294 0.0 0.0 0.0 10.991043518992264 0.0 0.0 0.0 10.996798772400615
10.966737258955876 0.0 0.0 0.0 10.990699579866694 0.0 0.0 0.0 10.888028985648349
10.91084397467795 0.0 0.0 0.0 10.910265699947294 0.0 0.0 0.0 10.988703757281252
11.030574551485605 0.0 0.0 0.0 10.916297799132215 0.0 0.0 0.0 10.942208618753654
11.020180981936333 0.0 0.0 0.0 11.04150503213638 0.0 0.0 0.0 10.994845585858862
10.955016512968054 0.0 0.0 0.0 10.989426219835288 0.0 0.0 0.0 10.983138040356843
11.013221243292069 0.0 0.0 0.0 10.896789468307984 0.0 0.0 0.0 10.98264854112069
10.870753509373085 0.0 0.0 0.0 10.841739468256568 0.0 0.0 0.0 10.940978577043634
11.016712225335576 0.0 0.0 0.0 10.911965325497086 0.0 0.0 0.0 10.884588795617127
10.945351091257477 0.0 0.0 0.0 10.889453183234425 0.0 0.0 0.0 10.972112474675601
11.005756140413826 0.0 0.0 0.0 11.019799485248996 0.0 0.0 0.0 11.02791072752448
10.991806500024417 0.0 0.0 0.0 10.924932349278269 0.0 0.0 0.0 10.94310180542281
