4.137834329009865 4.131428549151592 1.3757785228472625 0.009436839742910309 2.7696395334641952 2.7620348108517 4.144463322173533 1.3725364048372275 4.150714399740939 0.0027592258592560935 0.0057372449584531995 0.0025371175702250666 1.3823854156836628 4.136050832599437 4.145671105058662 2.7567395724385824 2.756213584649633 -0.0037228001280872167 1.3731143283952534 1.3747762730057145 1.37231871661365 2.769329023866097 0.007441180190721079 2.769911367489576 4.14218477843233 4.142351635903193 6.89654414562428 -0.0016984101504511878 2.7664106756505205 8.281452313665445 4.134067328227245 1.3840075797050437 9.65425281741351 0.003959273629841643 -0.0017790763449748942 5.512409489037453 1.3878519316330984 4.150822691344546 9.669261149660374 2.756399227398674 2.7659631440233685 5.529403535689235 1.3809610495913198 1.3756381857691184 6.898144209318394 2.768187541962768 -0.007800310508806073 8.28533313113349 4.152913382303982 9.657038563665488 1.3746027854366702 -0.007164926099886468 8.273389009262164 2.7535637554103474 4.148980629066861 6.906572169121576 4.131758949044231 0.0029968043773738588 5.525939309390169 0.008703108877653581 1.3823854156836628 9.663083003172948 4.135320416783271 2.7646459645182686 8.287030436267578 0.005371484542188175 1.3756580760636585 6.900570825252286 1.3812450387966977 2.768806351126238 5.527519482789743 2.7532156752558956 4.148148551745267 9.66533060645598 6.907735751352173 -0.0012287781960323492 8.276951582017569 8.279236755856951 4.138269705457021 6.909749091166175 9.661777978847844 -0.008608077470406475 5.520766727793381 5.525330445373969 1.3765829747597729 9.655760059733103 9.657595491912609 2.759040216507053 8.289258149256069 5.521113702931469 1.374585105174857 6.898335377149252 6.903183083935217 2.7649387938545535 5.520444063015287 8.285347496346214 9.66942248204942 4.140495208412784 1.389512771227196 5.521294925615058 2.757211414425728 2.76421611315293 9.667646720753535 1.3879535931385252 4.150660253939135 5.52330495037997 0.0005635583453026062 0.004830026524152337 6.897839224802114 4.136295041215735 4.141090812232624 8.277674262719191 2.750596786474784 0.00848321062134923 6.909794396837072 1.3902111415688259 1.3767564623288169 8.28244019829427 -0.0027006599919991558 2.7619287292808195 9.661771348749665 4.136938160739199 6.892784879956203 5.516460479025452 2.7609231643901815 8.28018927996215 9.662053127922317 1.3722192651409493 9.669794872563866 5.519868349489987 -0.007825725885162857 5.522479503156556 6.898082328402047 4.142741706679452 9.657626432370783 8.28568010627158 2.7555262644716367 5.518753387979379 6.9045687744548445 1.3742955908876622 6.897501089794931 8.28398280113749 0.0062632327474022986 8.288480217736277 9.667507488691754 9.668915279538648 1.3811886829621673 5.51754892014334 8.287000600825767 2.7591020974233995 9.659950281782884 6.893082129357942 4.142679825763105 5.526424411573674 5.513873635718876 -0.009643477802854598 6.902394102251795 9.655763374782195 4.151147566155367 8.281951781061673 8.287502278254722 0.006829001125431581 6.900252580539644 6.902019501704622 1.3826263092508708 8.28172525270719 5.514726708351374 2.7688406066335016 9.669090977140419 9.664091883112675 6.910693880156829 5.527570313542457 8.279488699587793 8.276794669693974 9.664744947783408 6.9034582330096885 9.655866141303985 5.53282466635013 5.531373779865068 5.521807653207646 6.901703467024707 9.664975896203346 9.662309491718611 8.295416405448954 8.28303248706502 5.525150327706744 6.906122427461698 6.911671819638383 6.898399468098326 8.280959476367396 5.526259764135537 8.277837805140965
4.099906199318276 4.041511671938859 1.3593199297284233 0.0018401892033614406 2.6938569512000514 2.712194779023705 4.114048925944831 1.3544455269946694 4.057960710124008 0.004230446968111834 -0.0036660191872488718 -0.007539694779198795 1.3683971655466853 4.02563700253267 4.0677039928147956 2.7415770557335595 2.6844560806659525 0.00022422473486336878 1.3629406621465618 1.3460520109344392 1.3505707468473753 2.742995304795454 0.005529404052837558 2.7070597012287307 4.103370084877545 4.028969446005984 6.766426510305848 -0.008122900000912385 2.693423965505143 8.124815299879149 4.104405053235018 1.3506812023817907 9.475546207251426 0.009213096125592903 -0.003660496410528099 5.423313721142204 1.3646692912601637 4.040820220293418 9.4872478665674 2.736524819589397 2.699307931823454 5.420002264220428 1.3619432486707905 1.348431223145748 6.777634433382984 2.7387659623826863 0.002942535436827658 8.12960686096209 4.098719906878655 9.41549263774509 1.3478546452560993 0.0051339732396302375 8.060383272988583 2.7072452665265483 4.101348748597742 6.723331178998315 4.058860922729494 0.001318839080920504 5.383281321804011 0.000724588305765369 1.3686534223865292 9.415325849888122 4.061409131908459 2.740386345072561 8.059956914625738 0.0021549874764454804 1.3717428636841293 6.72447328922417 1.3455671111383554 2.7409607138515213 5.385218711877658 2.702157684611373 4.097784348502156 9.40490326566068 6.771056806308543 0.006693605385576428 8.07768281878873 8.12075605898938 4.09680460791189 6.727246827693342 9.490041287032765 0.001423771838615184 5.383792730928355 5.415898841116894 1.3623221111538353 9.41066462633579 9.476252018116341 2.741145174593995 8.065206866176505 5.412459255775198 1.372319441573778 6.71918246912567 6.769089593240604 2.7462868797210342 5.3872731848177855 8.119422860688987 9.570745623253416 4.032458736338168 1.3620028946593747 5.468840178762221 2.6950167343114138 2.71591823508885 9.570370074436404 1.349725762009097 4.069126660098066 5.48178225372968 0.005775719894584017 -0.009722296139248139 6.837107006778296 4.034193992783836 4.065419772363083 8.212396597672505 2.688449048235071 0.0026763375988864166 6.839033351298501 1.3355874536039192 1.3506513793874986 8.21020957809108 0.0005622186701746537 2.707492686923639 9.584206839232628 4.035405689996373 6.763694944939753 5.471544130244711 2.684945398683413 8.129918345569143 9.586293344277736 1.3522872258521914 9.485968791478868 5.476410801091055 -0.0008814351646353119 5.42052913711959 6.849020740720347 4.026169398208553 9.49073605234424 8.207152168898459 2.6954795430006144 5.424371885161904 6.835770494811869 1.3390436072757788 6.766021138494543 8.199645610779585 0.00036339870822683906 8.134097982991424 9.567484975877473 9.40875595470109 1.3500913698280124 5.465882179550575 8.074590063825099 2.7037338850874812 9.580959446520813 6.718901912068255 4.05970259390174 5.4825344559190485 5.369188300167943 0.006671514278693338 6.845979899857889 9.419016169292941 4.064770293820721 8.217356051167759 8.074607736710604 -0.0020533683847832637 6.849719924253196 6.720308011021364 1.3527224206577884 8.199897449398051 5.3783307047515105 2.713959858463664 9.57514396263384 9.406796473520561 6.768335181940547 5.479565411153962 8.06466011128115 8.134533177797021 9.577123325810565 6.718715242215093 9.477538825092282 5.463240083167357 5.380511097000872 5.419288721468105 6.850172791944299 9.404163213580096 9.490952545191693 8.211015903492312 8.069073914436391 5.421278025642927 6.843870199150554 6.732216222186694 6.772445232376146 8.214643263242516 5.3702100138612865 8.118127217270294
4.090380422322184 4.153009565561892 1.3744482494942458 0.00877341991840621 2.7788579752258142 2.7610924866020556 4.093834853408404 1.3813944687458632 4.145351364330672 0.008009797270529903 0.009579893333573418 -0.009698556996840529 1.3616391662871352 4.16426393503268 4.142759442278384 2.7321099855866873 2.777039564460008 0.005155276926382209 1.3596570436155253 1.3877594557949962 1.3795914403067768 2.730369585192103 0.004198276456885426 2.7749728389914394 4.079623780994545 4.157047426325843 6.9099664037515645 0.00731759256813843 2.7734785558243717 8.29454940907892 4.0835671503229305 1.3960758008622995 9.682605524032084 0.003428061383272057 0.006755038905242502 5.538286973066885 1.3543116850803911 4.150558281925329 9.674179305202497 2.7205303897795385 2.782182755272539 5.527672068892593 1.359622982749217 1.3857377785689642 6.9134526982288484 2.715516850006503 0.005058588015571972 8.291882772868279 4.082297009630923 9.711561655344505 1.372662800857125 0.0014799995779703398 8.323464887099295 2.7670674217950797 4.0868435859142505 6.932803665242369 4.147391720096293 -0.0030446019528996377 5.543113727444037 -0.004610303065451779 1.3700972485077854 9.71619283442479 4.150691229177693 2.728556668114411 8.325678843409325 -0.008832751750039764 1.3701302106364706 6.941224390383843 1.3759908771167184 2.7140753062453324 5.546361595857162 2.7673629822156247 4.077344999164768 9.706632718368429 6.9110080070180215 0.008177904126824976 8.32620294125542 8.304499576991393 4.079912748989353 6.943686661396635 9.672821265500662 -0.0008570153458180142 5.55179705087737 5.523947348351153 1.3573804592609933 9.701432393199509 9.677272251610802 2.732476963952717 8.312286330524485 5.533776655125112 1.367836046479973 6.937054681105152 6.9039464203160055 2.7296630969006146 5.553581400776868 8.290740085740522 9.537361200193143 4.150615416281716 1.3864398719099613 5.447184044331185 2.766014831152395 2.773485148250109 9.527442895671733 1.3947298472743161 4.14176068977922 5.447720228291132 -0.0008460279695895782 -0.005156375664005053 6.813926846876428 4.156701323974647 4.1457249351224394 8.171489696582814 2.7823827255198963 0.002654550096790157 6.800105826318679 1.387268320077585 1.3824371707499419 8.16736943049715 -0.006336419870939087 2.7627823450659896 9.530790749208537 4.159975562090721 6.91211663327947 5.45089558002115 2.7721249110730284 8.286792321461645 9.537571059079106 1.392734539751232 9.676636082527175 5.442609999607286 0.0031061312597788797 5.523361721198177 6.813615904129164 4.162681752855785 9.685884157098648 8.164906060746734 2.781679533441277 5.524100072880729 6.810387812993249 1.3784685304562307 6.919870424683878 8.168058338986674 -0.0005317890094563062 8.287455958985841 9.534334178042208 9.71000254665769 1.390192060891972 5.444374572229573 8.323977997569163 2.7573655685853704 9.539997071750344 6.930458959155222 4.1477180451702775 5.445378818416852 5.551239990902588 -0.0059694415049093225 6.803215253791326 9.698180129835892 4.140135656835033 8.16939770014892 8.314714540670968 -0.008040561923969524 6.814922303162724 6.943866854366782 1.3799759984747721 8.17316087650716 5.554825171765927 2.7627614690511555 9.531274193762588 9.698860248424433 6.916025941741547 5.454103893879854 8.313452091142322 8.287090079357435 9.529718381288642 6.929095425765272 9.677980937377535 5.455291629250147 5.541776563757036 5.523195811817128 6.815393661602925 9.703704582603551 9.685379836529766 8.161554910997062 8.317081221510573 5.536501524429764 6.800890324981389 6.937423856946427 6.911474970507729 8.171607261508457 5.539027522224682 8.293775897792438
4.115684403149615 4.052845271786751 1.3691107216372382 4.397650776833219e-06 2.707292765361008 2.7342888440672932 4.102893835865196 1.3571315209211445 4.114013295854418 -0.006028079802344135 -0.003887523286720565 -5.387122201620693e-05 1.3667041072496162 4.049444788323565 4.11831639713955 2.748157935204731 2.699674934802839 0.004483404966981467 1.3717152303098177 1.3622888658696757 1.3736820796197564 2.7464934243856995 -0.0012654240110337588 2.74305556089091 4.0991690256572175 4.059907898934345 6.856432296795382 -0.0013797629312314224 2.6998024666753673 8.222212897381864 4.112081627750695 1.3485758913348156 9.600199177699444 0.0059610156279974276 -0.0071285919092466486 5.490050317465169 1.3629891917558863 4.059060251747111 9.599654968415813 2.7384017469563267 2.7088220484186523 5.4741616052084705 1.3780478474284577 1.3562047160199269 6.843773659034268 2.736842779755939 -0.008741430331650231 8.221171753560448 4.103518302275506 9.469157979851369 1.3654035020323678 0.002589116894860558 8.122410411827023 2.737138521770681 4.107149662404476 6.756649600669037 4.108232583908271 0.00033971852251036617 5.417869476439617 -0.007278112035658978 1.3724903162592346 9.472149481792309 4.108862547382053 2.737569491546811 8.11748284413158 -0.004323990126321263 1.360305525369324 6.768923443987179 1.3691810840496674 2.7385006940988053 5.418121241946591 2.7376189651180503 4.106624143136645 9.473798600833623 6.845408485710555 0.004064528730488103 8.108009204945587 8.224686575943833 4.105507139839329 6.768639795512072 9.601989021565617 0.006924101148123904 5.409616185344195 5.478515279477535 1.377940104984425 9.471129226812083 9.599989189874853 2.7454434852627307 8.124715880246777 5.4912915543969305 1.3774838487163288 6.7593266705794335 6.859476570545645 2.743025876748167 5.4095897994395346 8.227320768759157 9.578711156591144 4.047882522885095 1.3784733201411163 5.47999508896394 2.714358690746685 2.7443033942988366 9.596390812126709 1.3480778573843393 4.111293348848947 5.488455069645873 0.008547933697469569 0.003462050574061952 6.84138903290053 4.049622893180026 4.119776417197458 8.22423911497729 2.7022651511103937 0.008078484477042623 6.847728246495335 1.3560826812108697 1.3789900441073941 8.222706533681563 -0.00051232631550107 2.7460426651810743 9.578661683019906 4.060607125407862 6.847773322415797 5.4772487560538075 2.711295726980621 8.226026760018073 9.584806300567834 1.358659704566094 9.597309921139066 5.4842168337096995 0.0009301031393002258 5.48395847172656 6.843493308797244 4.053486229387475 9.60224078707259 8.224489781071568 2.705106033512228 5.473779009590886 6.855421936529405 1.3617336624591005 6.845324930345796 8.21196307283376 -0.0015325812957263769 8.21728203144834 9.595836708128827 9.470683964670929 1.3797244517871252 5.471179997981778 8.121757360686662 2.7497267971193664 9.596026906524925 6.762233517742921 4.1177238136973715 5.479247488331878 5.40501954086971 -0.0018635045166830765 6.852937263840494 9.464012728442475 4.12093409876446 8.2193016525676 8.107868480120729 -0.009672632883644665 6.840391865586883 6.763136135564865 1.3751618891061608 8.227453797695155 5.4118534901769095 2.745707344309341 9.592528575331954 9.471421670588745 6.855294404656877 5.474757486888731 8.118086421700701 8.217992252048798 9.580313000886607 6.75456291537543 9.599969400446355 5.4864607350185794 5.410893702894866 5.49030648062292 6.842269662468591 9.473483069390383 9.58938975208999 8.223940074724466 8.10924824305196 5.49240416004347 6.842713825197051 6.7677602653567055 6.850278883945898 8.215159065535824 5.416909689157573 8.230406820191797
4.068600563807046 4.126616212332686 1.3509148232817296 -0.0022205280210192756 2.760134834527135 2.691852509386664 4.062966518200773 1.375599693115394 4.052753177798213 0.005372807015564285 -0.009608137667420169 0.004522693101634848 1.3453254059347033 4.13231883306902 4.050305154504452 2.7024043714630173 2.747202435792953 -0.006716008769455358 1.3460873518242686 1.3767567623734056 1.3597381566828974 2.7030433175161246 -0.0031784028536158255 2.6970946971068743 4.075180510810507 4.142449447917856 6.760239728344631 0.008017847746484306 2.762690618739563 8.099846186131083 4.063012234954147 1.368892392298962 9.449934842369698 0.003095677299891578 0.0019571124420552245 5.404814185396674 1.3574163987079786 4.138779045718406 9.448152977482241 2.700718294058822 2.76076942660373 5.404761937678533 1.3476068896268878 1.3772389652720876 6.763500856751971 2.70590823406089 0.009925977952781752 8.11024674752365 4.072343895113068 9.64965065647195 1.3440758146758158 -0.007828449768220898 8.27336303506769 2.696170565592244 4.057132189674958 6.89111699680703 4.0511868347480915 0.0025253063768454504 5.5060506702608505 0.0076401402840854385 1.363318213869727 9.64695663350527 4.058216329826397 2.705716659094371 8.26692132681848 0.003374331796646938 1.3524985822378979 6.9005313825196755 1.358115211938123 2.7196765962853378 5.511888264269049 2.6979981472330734 4.062585545255991 9.640682553351764 6.758460040445432 0.0037694551650930153 8.269899446752552 8.099234452431174 4.067537105044038 6.882373123477203 9.446740112104163 -0.005708063206973079 5.523504673602539 5.4106310980164425 1.3543337833376226 9.659207634915356 9.45052807166943 2.70625872917009 8.270577578594265 5.405208220270993 1.352207954305735 6.89144136805716 6.7584981377399105 2.7121017656489292 5.518507397061117 8.113158469315918 9.489123896458304 4.136907924312459 1.3602595453701858 5.430192425989843 2.7569172458849125 2.702561114617442 9.495838816733631 1.372086034070369 4.0429839429998555 5.420073784576414 0.001885271829610483 -0.006173938693735947 6.778120421384476 4.128302289736881 4.04319402236655 8.121859891374756 2.751042643076363 -0.003546313868863137 6.779561587609883 1.3771736556244105 1.35218400743492 8.128178599787509 0.00830303320800737 2.701597797314206 9.48885939238521 4.138433993079846 6.754312877817941 5.424808734032999 2.761605390093996 8.109670934129964 9.482361082441347 1.37802376953834 9.455001782535307 5.4176736550242826 0.010035915859704765 5.4094141615813935 6.776284131790623 4.142321005610758 9.457225576038711 8.12290375724346 2.7564448394333816 5.400264279941841 6.782487459825814 1.372489865391839 6.752091261302793 8.126109372450275 0.002498094023646685 8.100610309008903 9.484275743612411 9.646241492863208 1.3510530620359795 5.425076503588476 8.26692132681848 2.7094523709414977 9.485552547224497 6.899873932066393 4.0532985133563155 5.42892977280142 5.508762109133576 0.0035223669980482234 6.766306994613829 9.650813168200601 4.0590076650574165 8.12941077514035 8.268327661231792 0.009057359638677152 6.7828129195700715 6.886441914527483 1.356220143661361 8.126367345558599 5.505382334866289 2.703693148510511 9.479488546437684 9.643948035735617 6.750238644297021 5.416062683714916 8.277887905157582 8.104778153024826 9.493324395298064 6.8987059778671025 9.44786126105595 5.425876546772519 5.5084420918599575 5.406705988191052 6.766649870264133 9.645347839184161 9.461675340033771 8.133031106609913 8.279644734680094 5.405635998463277 6.785811720892576 6.884455412743973 6.753550931928375 8.139244231092256 5.521609605325776 8.109170226831107
4.118311700168574 4.124822236133389 1.3547577565597733 0.010021664628259474 2.7436033570298437 2.7137969515519136 4.107687753681328 1.3769679912002577 4.072890701060266 -0.006414520016280615 0.009673606814822917 -0.007870034508833487 1.3708982557264409 4.126054077109471 4.085142554311298 2.744052886243436 2.7562229077201486 -0.00960595921471926 1.3694351036016184 1.3794273087911229 1.3535542839321226 2.7354594588496233 -0.0037631705283469705 2.730300783796557 4.11133417754498 4.134555852916046 6.806622963926597 -0.00029786765852094025 2.7608011227207125 8.171862825231464 4.110943567208897 1.3697133316343024 9.529371220498678 0.007008073152673991 0.009159703272099976 5.444758936084968 1.3742337188476808 4.126455598348795 9.5162039424656 2.7368156841226687 2.7613815827732147 5.450466429571133 1.3734328585496793 1.3770454586132794 6.796901349137507 2.7443234766438507 -0.0039628400576851835 8.173232143588402 4.124582196262054 9.633310666967622 1.3668492195331396 0.004476743600408124 8.249354242240528 2.7225344028685274 4.12302630145967 6.875440212857853 4.077152499866796 0.0018319406544199952 5.507981073833456 0.0031968946500599087 1.3631165995338719 9.638900322698769 4.087650970966754 2.7515388569581325 8.249128386543408 0.006391607119471312 1.3772527657748876 6.877345256563998 1.3677504601409725 2.7409421877289923 5.499168337284469 2.7301403935188917 4.109745550032868 9.625370802678038 6.805516598337806 -0.002767005062304412 8.24631446459716 8.155837981639166 4.115713814106529 6.879405235096187 9.52640563699736 -0.004766973626659296 5.505040585409595 5.450893045887915 1.366857948255734 9.626157478801824 9.522306410649144 2.7464609225890615 8.254200865460858 5.442907355804711 1.3744235685641006 6.881807815990191 6.806823724546261 2.7525230204306084 5.513122291441334 8.156870153085912 9.601326445202483 4.128608319558546 1.3541947539524588 5.494654496613035 2.7581006741681873 2.719537177747806 9.61282762831043 1.3803089097731187 4.092283740483531 5.484041461029031 0.009828541640866776 0.006305410983855362 6.867427245516542 4.119276224015214 4.0798114869869995 8.234560148533989 2.758966999885644 0.005443449627695865 6.852982300713763 1.3714874445015373 1.3620571508290227 8.23287768725399 -0.0006764760010365677 2.7152415551412235 9.613957997886356 4.13539599246572 6.813002569052501 5.49075821306513 2.7462536154274533 8.164683450897883 9.613223694098133 1.3775211739946538 9.52017332906523 5.4917511052601995 -0.008658892813268065 5.446034420674018 6.858534859373885 4.11877759573703 9.5338305066539 8.224109685408298 2.7514297479257075 5.446753449197701 6.852746625203725 1.3663429536226868 6.811289557243425 8.241123056834367 0.009265539033552471 8.170489142513231 9.597396337854526 9.6248427149611 1.3604717965878836 5.495645206627457 8.251901938147657 2.7178492610161875 9.608521094800606 6.869907293823569 4.080136631903628 5.482839079491704 5.513481260158013 0.0025509691781024114 6.85720482026862 9.633274660986922 4.083230964063207 8.231170130896535 8.248376625309998 0.00565293896995235 6.858573047535233 6.877192503918603 1.3686855245488567 8.227037080748266 5.507438801942302 2.723491289082897 9.609917690415648 9.629803902665476 6.795422921748146 5.480265197416793 8.260433173392988 8.160506757136645 9.603883960922532 6.884803950020587 9.535680995843832 5.495310241897911 5.509382033809796 5.445063350285434 6.859036760923041 9.628245825682443 9.528948968543192 8.241977380558257 8.263836284114332 5.44781289790255 6.8667180368057785 6.8850265324467355 6.812171158225421 8.230260161566108 5.503132268432478 8.160883183298512
4.105188752047912 4.0765127003369495 1.3720475265612118 -0.006713742075502438 2.7152047563045256 2.749575792745766 4.116633375872483 1.358473568714649 4.108621046108003 0.003172139287383275 0.006576013078186693 0.009890253712006847 1.3716485497039084 4.079959204531685 4.1138208623003125 2.7442087341995727 2.7264427866331222 -0.009294521144252235 1.374938742417562 1.3672477803134861 1.3674040917945667 2.732765203462283 -0.008408027359942161 2.7357788450940252 4.116110880152507 4.081494992160483 6.866068160359092 -0.008010143589918898 2.716209303515106 8.232624016424158 4.1184118288775045 1.3695039124599915 9.600377896148416 -0.005355034586109809 -0.0012023960083120616 5.478175240582887 1.3709380429717237 4.08267771259775 9.606233564708896 2.748240040089259 2.7121933008473436 5.494310301927155 1.3651851246155908 1.3535404658187284 6.862812946438407 2.7351055033293705 0.006502776230407685 8.230271692596988 4.116444271772994 9.53423409173117 1.3802872184799901 -0.000127891211793192 8.17348362221169 2.7480334465932854 4.106052290999336 6.7960253136130735 4.1063758448343 0.007191421216986411 5.4509661120020665 -5.793362585503569e-05 1.379700230610478 9.517449736542412 4.11045852582616 2.735279304206936 8.156232518754251 -0.004124218308510372 1.370469108528482 6.811109918080988 1.37084622364018 2.741947136616666 5.4527773576254965 2.7448602142186225 4.11770460140716 9.524116475864863 6.850769310784241 -0.0017216124664468154 8.156748455950545 8.241279081509445 4.113173754630385 6.80818809578079 9.612607356640229 0.008832145224692235 5.43522128281686 5.496288789904468 1.3730017917568993 9.530051939796804 9.610937119275956 2.7509957131228546 8.172710809504528 5.481614093166661 1.3778682163287224 6.795390229903228 6.850574741248351 2.746905380520033 5.437160419652083 8.223114157085691 9.606574607940344 4.086860957619396 1.378973327569089 5.485536090328319 2.722384153561429 2.7496588673790674 9.594134181603435 1.3543712121517442 4.113718112095966 5.490771978400877 -0.0053747101571549145 -0.006718114424623572 6.8540332694031685 4.088437189477564 4.112891738112071 8.217686978739081 2.727926106072467 0.0009334965373622733 6.864499580111885 1.3639696115599151 1.379295788316773 8.231645703308304 -0.0015401599779197226 2.746035283044927 9.594174625832807 4.080143936282052 6.864818761597728 5.481616279341221 2.720814480226941 8.228930474504079 9.590289793638679 1.369782649716464 9.608933490291196 5.490951244714843 -0.0016778889752354677 5.493084951085957 6.85893467276796 4.075979273744172 9.605919848659454 8.231304660076855 2.722066065162866 5.480750554215236 6.852531367480059 1.3636821296052006 6.853443002271815 8.229697821774838 0.009764548674774224 8.22573538038381 9.596953253699287 9.523108649392443 1.375224038197716 5.47833811058765 8.160132654170305 2.752027587515442 9.598689076300378 6.800934368588828 4.124689429128173 5.47710729431005 5.453327180527479 -0.004581128791668955 6.853686760735319 9.528415588138218 4.120962001502406 8.219444663085778 8.174012676455346 -0.0025949892033934855 6.8549798829878945 6.800748543751179 1.3628688726686695 8.226875470417147 5.451203311941888 2.738756414845518 9.605073799104515 9.533688641178307 6.862027016683883 5.481660002832433 8.156392109497174 8.237462020726694 9.598811502075769 6.795391322990509 9.597109565180368 5.490491054969844 5.446595949055492 5.4954886500153 6.865023168919141 9.525959421019422 9.609995971127631 8.222425512099111 8.161204972792262 5.490025399788443 6.860916440007114 6.795976124685461 6.864951025158642 8.221025267293069 5.45205919928235 8.227126880491612
4.122363663637952 4.085959301033827 1.3940768892077606 -0.007674664955589675 2.7281031805256526 2.78241509469282 4.126043237281608 1.3606320163702088 4.167107806839857 0.006212509907468451 0.006205913719281438 -0.009716185199470212 1.3694720079055043 4.091950838637031 4.1666867501605855 2.753783240502392 2.737615983256023 0.001838137774780968 1.3711936130223148 1.357410877805551 1.3804040904607806 2.7507171123601286 0.006885321102543781 2.7637050069003575 4.139565423064984 4.091046061490712 6.941341429451385 -0.007038132795542916 2.731168209303218 8.31484150960976 4.127408648236319 1.3651020332316082 9.698426062141378 -0.00880151377087107 -0.003975302747373194 5.544499638028568 1.3706131484618576 4.093476756837626 9.697470714218959 2.7524398168416373 2.7233132485371834 5.544721709697531 1.3766134809826436 1.3568842821152878 6.933949301223139 2.745616060162172 -0.00410832587581129 8.31833529061948 4.125842053541904 9.547551449739828 1.3892902553133848 0.004117120793393974 8.18871689465058 2.780927654256649 4.130659469647819 6.821907548043233 4.157419105757833 -0.007113988959693567 5.460292699633159 -0.008093522905465004 1.37438067128134 9.552930641206336 4.163666795335632 2.750301552504347 8.18466463637436 -0.006957879172600925 1.3749292542655598 6.821494186916848 1.3957918981363842 2.743410734578314 5.452213468468766 2.768881915262465 4.124102858589928 9.552586540055914 6.939904559791314 0.006665448162976681 8.187749453716485 8.318135206244474 4.12333989948963 6.819803364011577 9.70875569284224 0.009414959272263284 5.449057192421281 5.548375997953136 1.373076824749707 9.538648794416755 9.702571766416915 2.7522254407255593 8.18896535107229 5.5397877609336446 1.3692576317894265 6.8223813742280015 6.939919950897084 2.7600067440568394 5.463142252929949 8.312982483905719 9.634656313478732 4.098448084001238 1.3919968911994558 5.498003107498314 2.7284736664288234 2.782253488082238 9.64342814440276 1.3622722684993795 4.162897240047147 5.512021106760414 -0.006801769385508283 0.0031683690591619317 6.886379790747797 4.098994468256063 4.159096736286729 8.268054746799276 2.734629009372004 0.00482291292940437 6.874567117069555 1.3670578030290574 1.3844475538194196 8.26019538857445 -0.008291408551075395 2.778295775170031 9.64535313198867 4.08723236535392 6.940032086096263 5.5100543433159865 2.73308220324215 8.312440497109685 9.641206328348435 1.37102321149415 9.707483727886844 5.509296881039178 -0.005579275841515199 5.546133293969552 6.88312237314811 4.100647912761607 9.708728208724795 8.258887144584024 2.7254877919095017 5.550526355302102 6.879967196465322 1.3577011100857794 6.931354800536247 8.262220418347862 -0.004829509117591383 8.325214015533838 9.634206673317317 9.541733611758882 1.3903632352584723 5.5082381928351625 8.180715718379734 2.765232024465651 9.63209699246217 6.818202689011528 4.158595425984517 5.513256792680782 5.446748526555827 0.00040566557350130215 6.89256481653782 9.557629325924887 4.163933940957206 8.260485620854679 8.181886541782928 -0.00031221957418528404 6.886832729003305 6.817012077043772 1.3897146100867492 8.261741095339605 5.461132614262306 2.7802064710148686 9.642017659495437 9.557493004702355 6.938056527734252 5.502950248638573 8.18761533122335 8.322781121457528 9.632869845844748 6.830038449348425 9.70482986150627 5.4998852198610075 5.446747427191129 5.5511167141448405 6.89046173187086 9.556767424001784 9.712472644885622 8.249794299168228 8.17617754090707 5.550073417046594 6.8887115432719055 6.820124378503344 6.928221611147416 8.26831199813857 5.455833676418739 8.319120237013735