-6856.3886093946685
-6855.580435647683
-6855.915168050776
-6856.133674238704
-6855.706383129733
-6856.112604192063
-6855.839688569982
-6856.20678551276
-6855.9858215926415
-6856.098489919365
-6856.23674198103
-6855.887974490366
-6855.733550567214
-6855.786397115535
-6856.301169694324
-6855.965274140628
-6855.817199857843
-6856.060693715347
-6856.414536401216
-6855.869443674011
-6855.6538164504955
-6856.2339457392245
-6856.103870154184
-6855.967998408323
-6856.229998591937
-6855.991873268355
-6856.307838796339
-6856.38024583978
-6856.022386345483
-6856.012742494983
-6855.953011194431
-6856.281084291608
-6855.837985409466
-6856.139649586487
-6856.036441569477
-6856.1917325833765
-6855.965000394105
-6856.211878395364
-6856.087942923036
-6856.059295730501
-6856.149598612656
-6856.32892693855
-6855.7190722062005
-6855.670316073103
-6855.884717695889
-6856.228217878977
-6856.1298578421165
-6855.776407680461
-6856.206845649918
-6855.85208430773
-6856.261397263552
-6856.159470630609
-6856.030210298628
-6855.641095400652
-6855.69452726584
-6855.544189268032
-6855.881893562414
-6856.402834281641
-6855.7762708072
-6856.170523622621
-6855.852531662881
-6855.82885857526
-6855.917411357262
-6856.001696986102
-6856.348873563207
-6856.017310333937
-6855.981485050452
-6856.243870683318
-6856.171216424454
-6856.10859241774
-6855.631573048982
-6856.095994771522
-6855.966202593045
-6856.138192825052
-6856.437361718172
-6856.250804960268
-6856.341427848297
-6856.149831269988
-6856.23885657767
-6855.763815748634
-6856.108404387077
-6855.889073013933
-6856.25480353707
-6856.426191989323
-6856.030125943339
-6855.896255458704
-6856.169954496527
-6856.077005171234
-6856.071505070271
-6856.144762197345
-6856.183827132136
-6856.313502709833
-6856.264123299988
-6856.038787190766
-6856.374863291995
-6855.931482091745
-6855.865463056722
-6856.082364045116
-6856.335074262279
-6856.033129671947
