0.08100903285421532 0.012102439690488834 0.13847755938432926 -0.11156890791894333 -0.08634587168609646 -0.04731266904303465 -0.07233644478088187 -0.10152155098527033 0.08586044740924567 0.08188963568695573 -0.09537378621631962 -0.03856911852244971 -0.11985145964270971 -0.014575840931645864 -0.021885487219181664 -0.10112328710558714 0.05164677764201429 -0.04982592238319161 -0.04240391888750762 0.08172945596000762 -0.045008189279574104 -0.05937345686231065 0.1201491933887866 -0.0038576831831933557 0.13709070633913165 0.059018901736369325 0.2121311803147379 -0.007657773655573909 -0.05788941611761642 -0.027155991589501615 0.10158017213734763 0.03628649313586008 -0.015501695180024914 -0.12839060746197245 -0.1536612091033031 0.004395043743902109 -0.08681818333682467 0.05876564807498266 0.053224149431463176 0.0982559928601211 -0.04818221613218154 0.06844405170501115 -0.0636178339609614 -0.058672059919911854 0.013793454239666568 0.0748512407829356 -0.09129138861682988 0.10028047948931762 0.03294071659207875 -0.09687428202124607 0.08404113481231978 -0.10630585974779111 0.05104076862689919 -0.14120447139718906 0.030268569076554327 -0.15325060392844575 -0.006325685107711686 -0.01591667123025646 -0.04651357018050699 0.01963834305621779 0.06840188561316608 0.002153298897576937 0.03574476169977715 -0.08448593565922224 -0.02654484036806396 0.003178140617665494 0.10448963247465876 0.04395943630008558 -0.08425273660249362 0.017078295638525427 0.010469532072756162 -0.12228706566739586 0.03340145827858119 0.12604061917255713 0.09552908084726128 0.03705628142234908 -0.20619887399070294 -0.053809332510971836 -0.1231303875042976 -0.003943558028780305 0.004450579572185883 0.03678194471503988 0.11048518793646134 0.012936505556009977 -0.08098152205038957 -0.002418636743821641 0.07004867718796969 0.09123096769253966 0.026961873300824533 -0.11641620870891563 -0.07161576456477343 -0.09128110420418473 -0.18801320422061168 0.030506396118973267 0.015274152550251116 0.12885186336910714 0.030602555377205357 0.22231994792228163 -0.06044354999803784 0.08115532862409248 -0.05603590784864543 -0.0538620401257782 0.008015928325941035 -0.01647022974088131 0.11170054840080117 -0.10816142489929113 -0.0384971276339337 -0.015209874971218968 0.056225141041316075 0.14364239141472035 0.04811768144283326 -0.028996644342666193 0.16919272907999894 0.05315215854294717 0.028582439623383034 -0.11887392622078884 -0.09817191778674705 0.18511994183321667 0.0735795731593636 0.12246961399184715 0.029704469042968196 0.13775970738169824 0.04673417083174532 -0.15454206904635964 0.06926680471662265 0.014871260684877612 0.12605733134310548 0.021294390602402034 -0.06623007477282788 0.03986315474352489 -0.005415000367984223 -0.05105413836333788 0.06348670769973583 -0.0008294378798308295 -0.06809232479254726 0.03432808385790862 -0.09497140857157838 0.057207816669559534 -0.04717640057548649 -0.0361427684691442 0.07888761563583832 0.05386486833925562 -0.13922832150742473 -0.09213368201246713 0.1697732841738173 -0.05785136379082939 0.0799898475610816 0.06416239361052176 0.080386568778868 -0.04012797836913734 0.01974658649930793 0.08070512846055133 0.0001246985033223659 -0.04668480565104863 -0.1355603857375343 0.1268155496653687 -0.07031118682073698 0.10189436094365678 0.11310642760939231 -0.059974066560787034 0.06848158981116594 -0.06991189449978928 -0.08964896791740044 0.059568089371619996 -0.12766298526732853 0.011529597906154336 0.034480550275372876 0.06915599017037122 0.12004994880676098 0.07920668953815391 0.017688932639330825 -0.04756206604967937 -0.011260403405167704 -0.15404044681959278 -0.12645688077436928 -0.07274396463194568 -0.17087371632684767 -0.05546769405000125 0.09690770636234278 0.12428738392687627 -0.01175482654308298 -0.05345914826040471 -0.10871035542422568 -0.036188534105415095 0.042162749410979 0.04533394805010903 -0.09003386206064494 -0.01768944685996308 -0.08029735149917139 0.06943675463558364 -0.09736510561473555 -0.022421048007677514
-0.22752746026515008 -0.4426017823686119 -0.2940203017810614 -0.034796795964211036 -0.09383960895998032 0.08113090314406028 0.10584280406844351 -0.5510144040467607 0.1313275786031093 0.14642843880028977 -0.042171234051411245 -0.16670467255082258 -0.16940664486301793 0.04016911601971791 0.03306052999939468 0.14710541026265633 -0.37921611902311464 -0.1431752219703147 0.15164700688675173 0.07840604801372948 0.005021621584307481 -0.17168747047739463 -0.11050369987922261 -0.11360702139489466 0.029666930936813427 -0.5249421324397412 0.07936558371352137 0.03207374060609315 -0.01193377532310848 -0.273157085178807 -0.008358913487656572 0.05186403585914293 -0.09243810062676339 -0.0007461341374051666 0.10937575692236647 0.09933842729102248 0.03014129947007067 -0.04148294973513501 -0.09401238709241873 -0.03335003621535546 0.0033899995181554524 -0.04525527229337367 0.06357438231753566 -0.08303480503499247 -0.10699928627038992 0.05221422010971007 0.07313580075372567 -0.13974819856663676 0.1476494556915844 0.0331767438622848 -0.08640397861754152 -0.08602602645283249 -0.03708739177060064 0.1256978911211577 -0.12139926374580383 0.09442633470138577 0.023195978500489083 -0.1875915433021608 -0.05949686981405238 -0.2883296791541873 0.06837154659586289 0.5196675143043631 0.06928608799033228 0.00027150849383179046 0.1454370214212979 0.03965103873271881 0.00016660748485132598 -0.019709048393153156 -0.11648974225932843 0.16994631941657184 0.49798848666903267 0.003269157669575015 -0.11639384011141243 -0.3239186320023905 0.0009160840563661643 0.06204534726751895 0.12463191175048859 0.09396764989741237 -0.06832115297390169 -0.12893259600837148 0.11518207919149841 -0.06828644308122434 -0.1438138839955781 -0.0518259835323559 -0.11944445401227816 -0.5002631416358223 0.03039481024177346 0.15713811190831004 0.16017227074894352 -0.162004695971992 0.17063511795348033 -0.11398625911118433 -0.06298482836265282 -0.09417693769474103 -0.18657364356060768 0.1789050712717564 0.055489034206239914 -0.05893405533204689 -0.12598868288869913 -0.1292706960740806 0.08161555608996267 -0.049902027036765675 0.019681023368695136 -0.004227664928102396 0.1563115022419566 -0.05374942580731388 0.03250131506181499 -0.12050220585283118 -0.060715572712501886 -0.15465571180608848 0.018212923463600893 -0.0009780476425531545 -0.0901009678531545 -0.07343764826486063 -0.09006111575415456 0.019166545626121828 -0.06254028462606648 0.16048825932746552 0.04278752747917147 0.01202864902975993 0.1529410431078269 0.0040386888457478835 -0.07697497199415776 0.09506114007190726 -0.02648776187788341 0.16434260007654922 0.0037376126655613053 0.46502925813419266 -0.10871395496865148 0.03524211103174576 0.09110986873364309 -0.02736167984240449 0.028324815086622185 0.40473688900203847 -0.11815890243163521 -0.04419289246713034 0.47129400809698185 0.06604649800711207 -0.007445657644767822 0.010085923481092308 0.14351897846297865 -0.09546377482696462 0.5241450904597426 0.04335239884370599 -0.1540396754886444 -0.11564487776052987 -0.1302366595317757 -0.025472176129175485 -0.4271761918421611 -0.18780520197486364 0.05598191468225843 0.04343338859328649 0.19342897591954428 -0.015738493781179346 0.03246017741123442 0.16754516617424692 0.150823739654508 -0.5843271592662775 -0.08681381246145049 0.19200946986419834 -0.027159591133927418 0.3406220608000005 -0.09965158765606708 0.11750378534613957 0.154638742525224 -0.03319988379073637 0.02152887521071131 -0.03570619515235786 -0.0573073183619013 -0.04491408690387103 0.09500663268488799 0.01376157256046662 0.16067903518203294 0.12843585887761105 -0.045515467933295806 0.04204190756239856 -0.06780153302500581 0.05567338230290412 -0.027192758364708004 0.18191660440457055 0.006103284684260457 0.008042667798818407 -0.044587042581755464 0.03501122596786228 0.370099244323511 0.31533011900243113 -0.06114571827138502 0.016757421963996946 0.03443478463910199 -0.11378725572650081 0.46444510349594853 0.22880504142599306
-0.3848985141198726 -0.6263814081238502 -0.14444251871851255 -0.2940205588913775 0.04603560210282394 0.08624662710407081 0.056661714358102425 -0.6132016762087826 0.05191545792236866 -0.009471686935861107 -0.07967283054129505 -0.15585873097525416 0.04745099439311183 0.06404412286510261 0.0368729617669494 -0.044592441898394175 -0.4203434851910438 -0.07298590543942268 -0.14735660704151396 0.0014318473505201147 0.012836489643035956 0.10779247159564662 -0.06808589703464403 -0.1235124534340647 -0.06663373796914976 -0.41320815969784325 0.15010537343124472 -0.13807903839432994 -0.07190012857441165 -0.049318900839786024 -0.2833139711071508 -0.08989116583519358 -0.15673496293262038 0.11721736445397234 0.009006831484300617 -0.06711941935631666 -0.03687938952485262 0.07978621619070775 0.06228368853057015 0.032034145617409346 0.01899865258968986 0.17702225242674674 -0.1414376704539177 0.036109858348679746 -0.17763751741324246 0.0657690759760093 0.11080220495624789 0.16523657264572833 0.3518210148396135 -0.029146539656969155 0.023429434667533843 -0.11482366741081515 0.030474257329457195 -0.007127612183716757 -0.33533098760439023 0.0014683570154103744 0.01601848691544338 0.11476016116273138 -0.033667567455774275 -0.12440616889292769 -0.00951308169675781 0.5249076796573798 0.07255550277022343 0.007973762234095945 -0.0003064754968252786 -0.1581272152944567 0.10122304590824503 0.08498035879713751 -0.014017911545646826 0.33551353592884153 0.37085617709419355 -0.12247321353627293 -0.18395163255672833 -0.44292085627092753 -0.06730016790855506 0.07302550042810649 -0.08425890725008069 0.008697527773997925 -0.03779084559552846 0.03399049801283178 -0.044070507956653134 -0.016418293457023336 0.04268776867651358 0.012752928790294164 -0.08110159256802163 -0.6249948121889688 -0.12117840598424937 0.042900656018268056 -0.06932799697186125 0.08771524122979732 0.32705820607263675 -0.0805943139142999 -0.07911695803782502 -0.07603549089902388 -0.0021453284777769505 -0.10002388339382129 -0.04007578497496324 -0.12722512639896152 -0.07936635504446976 -0.23271337534146372 0.14950604928434896 0.06037155910952182 -0.02968210044546501 -0.148890270077221 0.1393782168217277 0.11799512316026131 -0.04549464199768939 -0.06383200685429652 -0.07678702435306776 -0.06659285742888531 -0.002732568439814649 -0.0964672763908145 -0.10655988474012615 -0.0666404228373691 0.03489372655339152 0.09826576305213398 0.031874223000777364 -8.407507337404875e-05 0.12835486912803057 0.012853201813584316 0.36237256510321464 0.07237861087272697 -0.09901421118238432 0.31992802278575866 0.01221608245021767 0.05089267308480913 -0.047887567709898174 0.5913897225400138 0.00031984523326396524 0.05371291614242363 0.08284325784947667 -0.09586795224391877 0.11026870105028105 0.5973983906279389 0.03450857529983089 0.05603873606212284 0.5505922289076776 -0.0015979406147391836 -0.05649099310819304 0.04806291694549787 0.0943034359702763 0.10801847156352365 0.4887433139216809 0.04762505807713088 -0.3766283036912804 -0.21233995389143434 0.02149262265613718 -0.0944600161527986 -0.5808469140271609 0.09601707622727335 0.11143932431961452 -0.03137697164938467 0.1404994749103645 -0.11304394980257305 -0.0688222609800363 0.03970143235468001 0.12696364520745876 -0.5756345165882861 -0.12187183250684817 0.38696619528217874 0.07537266050404438 0.03323947877942018 0.00934158911590004 0.11107911276671838 0.16787658137173667 -0.06863277067704954 0.17004556399859747 0.024108720122745578 0.20057664270791908 0.0266926787998379 0.13760004187538238 -0.029676186908194055 0.06403975198972842 0.04363239197797001 -0.055494433522878625 -0.008503666595636967 0.007942651885844386 0.1947726344316323 0.02257685685925144 0.07848935175615515 -0.17950799496307795 0.07270951184958445 -0.016589786037881107 -0.0604512633075217 0.5356260945161485 -0.042834578667023004 0.02730717245538523 -0.07231818994843674 0.056487650674083366 -0.042064019049585614 0.4411773912172595 0.09289652832042067
0.20830537881074446 0.5101418342021149 -0.153922947405122 0.15504034883901685 0.09460425504014675 0.043303547883641554 -0.05417880003524862 0.5409225670283975 -0.02416091351691968 0.10477913869061954 0.05029386315854564 -0.08368889367922362 0.09105664689820447 -0.04938549241166333 0.037801644228805865 0.09798679835913447 0.42062116433246266 -0.07697291511162872 0.04032286798876282 0.06746420429024509 0.03207296927514476 -0.02387140730095889 0.05016762199332651 0.015853164982172697 0.005057617028565484 0.34839836231130966 -0.16204249118846287 0.04452276500272332 -0.028583210954331417 -0.03585686179760921 0.33801753329761786 -0.0013706550952815105 -0.07023405372589839 -0.009476057811235292 0.17375797985317817 0.010295468388737107 -0.003486415886703673 -0.11451847746557052 0.04899597028272852 0.05888134771724053 -0.023447175279346717 -0.04081240603067165 -0.07083157810058124 -0.04925179504727647 -0.09154258539568749 0.008226501674850348 0.002747480838150107 0.05701781214594051 -0.298228426325138 -0.010992751566077843 0.030427463251921794 -0.04945028421132774 -0.11493782439117625 -0.04219231709733379 0.1782502112965769 -0.12956097362098978 -0.05441302753324177 -0.0015948552909456405 -0.006584338085737047 -0.1032120513138158 0.05082633862324796 -0.5527653252995964 -0.02868451241888608 -0.035371437520758435 -0.06389859842617382 0.03242469618760867 -0.03018552244444479 0.03611422922405394 -0.05919630785449805 -0.36448138391610135 -0.5082093930660926 0.06232431196051848 0.3273322856696298 0.5048263355264725 -0.038643680514127 0.06876981047554608 -0.11347820912651425 -0.044627923122019915 0.0672492600659616 -0.01074541144196214 -0.0037661519106515777 -0.04419057847428518 0.1877614932211218 -0.010686276069252564 0.011772052934263595 0.30503413639306176 0.06061684235110851 -0.05784185070913264 0.027683581958197485 0.1295342341481124 -0.1573556272357548 0.14393292607194566 -0.02821117232689335 -0.01960620426670172 0.12021758473287684 -0.02779413939413278 -0.07376340703539555 -0.04987631600515281 -0.03885991028999114 0.13148981521258643 -0.18950392983352526 0.03543725776168735 0.1463075969517093 0.1028279285015197 -0.07178160071867638 0.004969685300449505 -0.08299109628125062 -0.044883490776251735 0.06011239191086421 -0.07664407101730025 -0.12501654878341698 -0.08413549429833897 0.059543663891587786 0.09010919538327063 -0.09498734941117834 -0.007405034214819505 -0.10109397652954848 0.12701789548416187 0.07433779148162681 0.07164661780270887 -0.24049867571383743 0.08215857307762625 0.04344058768213809 -0.17042762992836455 0.14495905334361486 -0.12449127240756626 -0.0455100686166571 -0.3247454987790601 0.05595311832685203 -0.001391481030887926 -0.21599837657962803 0.11968150972374873 -0.08103602943740883 -0.401595000938947 -0.018729972309335482 0.10652388929586816 -0.41605642777991564 -0.03303970406378826 0.00012392717237398013 -0.05006323520497829 0.07483735682586466 -0.2122731052092409 -0.666706075884826 0.031998664393783606 0.2824662783948748 0.0405979760270204 0.050901414835557504 0.05640923202766414 0.629985837645657 -0.0007574469913148244 -0.05645628321551567 0.11096804111015082 -0.022787173097844626 0.046307624817287986 -0.15565664226677708 0.015835938590992082 -0.17388962033503602 0.5074843419746099 0.0853678240435433 -0.22292981359213868 0.026091040660097004 0.11980749377865171 -0.10215584213515955 -0.08602499801156797 0.052629710380573874 0.0968673400427106 0.017032530002254537 -0.059836255431342106 -0.03287309657893693 0.12110667220604948 0.09804747639374081 0.07554286753332151 0.03829529603577276 0.011060114468903533 -0.09934125550449988 -0.10695017820000935 -0.03973228559261545 -0.1325478241634556 0.12926709652965476 0.0505039222868227 0.08987728187812263 -0.016726825836377645 0.10094896631125194 -0.024877994188602315 -0.5446403821996169 0.12475378204033355 -0.10529258799192834 -0.16049134465125908 0.0020954490764480043 0.09412500141088306 -0.33954116903099585 0.0659469963147703
0.10364142554175053 0.4301964667257236 0.19260596579761669 -0.0333772899088651 -0.0665730599345434 -0.01659801356799722 0.03379432284162567 0.43486199052219293 0.08600751451007123 0.03360894630369696 -0.05607087485163892 0.08528529163206602 -0.1366803582745904 -0.00043785886836698786 -0.033677851868419414 0.1447443662296475 0.4316725370506179 0.10398878157884027 0.1192145973896592 0.06870758977904295 -0.1388035752651803 -0.17908247738988514 -0.029326773988575295 0.035383264595300355 0.06202349289064802 0.39683588898740685 -0.08226964473419379 0.13703851294495756 -0.013763629442995652 0.05737185305124959 -0.008152968124437571 -0.06291617990824648 0.09983387887020226 0.07493814406978706 0.02366494771710763 0.14520767901931123 -0.11155888061661433 0.08439183328351918 -0.0020532829846029153 0.012904366766493905 -0.056410003358612536 0.053293826327134024 0.06256856676084063 0.12762724693338667 0.16175195653123756 -0.1052445083628123 -0.09136697904977167 -0.036751862808052836 0.06989338255702801 0.0894803035500201 -0.051036397751525006 -0.019390231601153704 -0.08075089409682223 0.05409626762377135 -0.0074484858582452365 -0.03155669176035856 -0.09076302691718562 0.14205782053641988 -0.07177311607824413 0.20959195883265194 -0.13668318648806782 -0.45604428102676303 -0.0010713786873078322 0.04666629370828737 -0.07969237092532082 0.0801752240990103 0.14230927442559363 -0.07192609671634065 0.16357384023132476 0.048565567613529266 -0.40727842447696955 0.08856756192776359 0.06061967056458593 0.40416199033517497 -0.07785197528247238 0.024093550614093993 -0.006346511043318103 0.04532546340967678 0.0016339360589971862 0.06458225475675973 -0.02532228081487252 -0.07911952914098631 -0.13433628352244606 0.09510716281849427 -0.10374144145472457 0.47449605997404726 0.10087928941558111 -0.03440753094559235 0.07797050313820765 -0.07184716384928917 0.10346864740931212 0.036628192745994985 -0.005806065158815807 -0.034413187372547185 0.011789279325444213 0.1002758515036273 0.006316429136331058 0.059683017682929475 0.023796331088649342 -0.19084810256624551 -0.053823987798991176 -0.08918154136267867 0.16951694518863708 0.09558435956522893 0.05599477019806485 -0.05244227696011613 0.10620738649671388 0.08276766741653488 -0.022397650968909815 0.006502319894892028 -0.038423594083520925 -0.05248932814796766 0.14019608473733275 -0.16429503466806544 -0.03772759645776083 -0.11466888700050575 -0.07716369096619613 0.028866546522705126 0.07654122689084883 -0.027196357909133807 0.10565665619956642 -0.10539440367711526 0.12593031884693795 -0.05193371275481378 0.10684656274260954 -0.1627973670766164 -0.08147877340178225 -0.2674068129585911 -0.005363578304758504 -0.024838142089602385 -0.2493818371360802 0.012597634159352498 0.0014364753362104293 -0.5407765283688365 0.05858901328780232 0.07239223771948178 -0.27560631805024793 -0.1528716233224722 -0.06732202228542598 0.008177907825102046 -0.0387138716304301 -0.018423753922826334 -0.4800061911589991 -0.06800542150569579 0.11707672511104998 -0.05919116564817548 0.056115612046645294 -0.12044718424517965 0.3979332358166437 0.09183851936955151 0.0354097469578616 0.06393407964979958 -0.10035632703257555 0.15715276719632937 -0.10828586629229738 0.10321256553444806 -0.032939688150814245 0.4755458413948004 0.01748247305547957 -0.11187821162924604 0.0991507367602486 -0.061493588529106996 -0.11844789442696374 0.06456785657905653 -0.1503300878475411 -0.0901747585138834 -0.006881300500865568 -0.11577883223523285 0.0009158269460500357 -0.06909505502544876 -0.19226092375337211 -0.08876399420928584 0.0010392398977917586 0.0017102978228873769 0.04145312493846409 -0.007028367601691121 0.02330936414990179 -0.043934496599421106 -0.017067497005248025 -0.08238740125898068 0.025471404798227102 -0.09852338758889484 0.04929576091133445 -0.0577343785969909 -0.3121411797514882 -0.26046817685722884 0.1621281089237337 -0.08270827493350917 -0.052063810574774855 -0.09405558162552834 -0.2944198512123252 -0.18795921105422467
-0.4333746073433891 -0.397479950329309 0.04996836149832685 -0.2735836311932643 -0.15473053090808192 -0.009762221593086413 -0.0757794090241598 -0.4936793177707175 -0.02378347557284291 0.04636547463841692 -0.12221790299235726 0.0397723948019315 -0.05267470468589638 0.06174324264606786 0.02430849483837749 -0.02841686057979622 -0.5216248951410501 -0.0019393831145579504 0.025253118139833927 0.05913048761356913 -0.13336723474095738 0.0004674265547217756 0.09985290503359577 0.0033043817828846316 0.08838552782394456 -0.48313033861027765 0.14142481493811127 -0.08121677798964722 -0.023046340296502245 -0.11344324212352076 -0.21489408777185573 -0.04647114697834578 0.07191272697990195 -0.024146515339216478 -0.04370901085217634 0.09941350350333202 -0.06127375920881705 -0.02548888829972384 -0.108393081294123 0.022794372186696225 -0.029530148248633016 0.07915089659955402 0.05292333036159272 -0.14053444191335795 0.08679838584248277 -0.07713875126553166 0.03630500507862135 0.12490290602368812 0.3201023435800939 0.1042525767631882 0.0808352262805124 0.15161923897260984 0.07014175112240822 -0.06858803348204318 -0.29688116826862415 0.17203816894859403 -0.0075700990377740585 -0.06053996636658606 0.04075481331985884 0.029879046947619507 -0.027126938123779087 0.491856919849998 0.013924066280259889 0.12357647390278072 0.0002637951843479328 0.029687242651787578 0.2455496078741836 0.041851388818147275 0.04750241645633755 0.3648297683944556 0.36977888486961474 -0.05397722554740381 -0.22864460458872882 -0.4285566171294555 -0.14879513926025342 -0.12251049453211159 -0.09887434317041036 -0.04048716148076899 -0.03368196563347748 0.03700897312418142 -0.016087392480165844 0.0179144183865756 -0.004180870850566992 0.09989327135322795 -0.02438485660226768 -0.310933018376 0.06063304030102461 0.07047933696748507 -0.19231800224355264 -0.011952544376185866 0.26378130039086184 0.041035063564439006 0.029960808028148402 0.1080459823673494 -0.07771467837365971 -0.10480793504602595 0.10542757090789585 0.03886299561378468 -0.007891744043250926 -0.4323315107908554 0.07389941839262758 -0.06270740633155009 0.00132154702490095 -0.032145731494609156 0.08997035581256117 -0.07009135750044702 -0.05263562391784483 0.07775144514886609 -0.06962135984256397 -0.041291916770251465 -0.0617661254642033 0.12766118549511565 -0.04535194577223802 -0.10387950969448563 0.07649983212995214 0.09015264702669634 0.08990247868910323 0.004335908371192533 -0.059232303298756055 -0.20547562267143324 0.31338765056407963 -0.1801633691588897 -0.02541664030089171 0.3955688493495252 0.006247009350976339 0.04687738127782895 -0.14357554273252693 0.5189828295325127 -0.08190017720991702 0.08259180396030291 -0.00464804029497264 0.019369662775863414 0.05343009479468217 0.3737759218441498 -0.16421070248437525 0.000420889587502501 0.3496116658931205 0.006784112801368961 -0.01773675515813074 0.05096055020826707 0.16448581052263284 0.17931901888072344 0.4291371722232738 0.02221638819603916 -0.20683907867786314 0.13104372881410334 -0.01723076205598968 0.038031243741108695 -0.39603344769076954 0.0026919450098663316 0.012220196215275729 0.013524773959312193 -0.0418138507119925 -0.15863217995533327 -0.028431001647183294 0.07329778025288668 0.021387978757472843 -0.4067991708477059 -0.099107542227139 0.3134496141502666 -0.127402018296458 0.1262715042364406 -0.21834785064841106 -0.008048838446405493 -0.09103684940386257 -0.10779041471311758 0.10921403453352158 0.02100488438644125 0.10905051237246381 -0.008945125008429755 0.08395371730483606 -0.06244206848530536 0.1157909164200909 -0.13247454772335895 0.025358019148814394 -0.025448521980091652 0.002157669772951123 0.30448263476496595 0.16490849988234826 0.003238561541955713 -0.30051696524899857 -0.06888473878685557 0.07020037227448554 -0.004310454449895802 0.39760079217788946 -0.05218593797493593 -0.04739263035135064 0.12500137927476535 0.0717620603346506 -0.1101342323549458 0.46495469614251533 -0.09515704221982323
0.722241389947969 0.7388432601707081 -0.03584914848812535 0.7446860921047304 -0.11252073030925139 -0.06524225693826184 -0.04527121313297365 0.4904443557731876 0.182851200403698 0.12027106367863158 -0.06938713234457082 -0.007575498354412759 -0.02386009444704923 0.15731114715106456 -0.0834199562885531 -0.014901599702180787 0.61695548682426 0.11583128273972308 0.015584227591502192 -0.148022522760287 0.12066624223452121 0.02179806971169794 0.034176902992025006 0.0849271369616989 -0.23574239197577468 0.4671095377019891 -0.06302648023386566 -0.12260433979749853 0.04286208947084877 -0.02714467873559196 0.6927348958484199 -0.19377967439074367 0.08789753244393249 -0.13151269803072188 -0.09575353815324154 -0.10781843973757561 0.13063929428683307 0.06305861902338172 0.13265529627559736 -0.061297413357900885 0.1479009095807582 -0.03524776745870059 0.06668490292205934 -0.09441347918557934 -0.05329254077555338 -0.05847614185902187 0.03461373341912748 0.038934472281668436 -0.6234580638294681 0.11275367225566388 -0.016838154603261324 -0.2493432705886609 -0.20409519738413884 0.09465619132400473 0.6645759169157006 -0.16273823170390683 -0.1772161136051077 -0.061907279027757896 -0.1219880463697383 0.03830146668335984 0.023373384618617814 -0.5126815699048332 -0.09861131931701081 0.0011945345287334267 -0.1616624821412248 -0.0319482707718224 -0.10510104080641254 -0.015799428926101824 0.0908949245093596 -0.7908962721122056 -0.6902195856257339 0.15071729598363076 0.7522055404102271 0.5907947692684922 -0.09743169718661285 0.00527513235601027 -0.10392321844822747 -0.04289140004688742 0.11661701186581207 0.1827036190822402 -0.04527609822898009 -0.005649227865977368 0.14989814251644507 -0.04717125836916392 -0.12177978701367415 0.6389947260124866 0.09458342910454033 0.007811782734934934 0.17389964763736504 -0.08107331043324746 -0.7055562159828043 0.15365863800014182 0.022464756761419378 -0.17256858753076731 -0.11864458381880214 0.1350245678387223 0.15841723573104974 0.13626512511404276 0.08601368515765832 0.7956276161496039 -0.21646914556845942 0.14407742206960994 0.048424928270606925 0.05023704177868123 -0.0862833938792772 0.11591792891625843 0.12356438971792268 -0.20612019823396757 -0.0387012732249398 0.14491097371449882 0.1211670931303397 0.00796733447619273 0.11553046366985263 0.07224465639802397 0.03825184439234703 0.033518443472419696 0.11750635644930087 -0.05540444491223361 -0.09277337247899506 0.07944194547741157 -0.7075714466406201 0.16969589396866258 -0.04409596187794986 -0.6990533818672799 0.22704152176766704 -0.18405781911728947 0.27096264863064945 -0.46649170161233205 0.07964223441367574 -0.03445278236123099 -0.2110124933292624 -0.09723937867014866 0.22057236910355563 -0.5466507277614262 -0.0892509611480334 0.01725981552171221 -0.4743016845750541 0.049064104516502595 -0.1410951995128344 -0.04059977579923331 -0.10174883650472799 -0.7362834698633319 -0.6458053211764169 0.02123037013368602 0.7746024200481886 -0.12274035115473055 0.18837984353141105 0.0756361985780762 0.4411768769966273 0.004750627311107947 -0.10385585554540178 0.09459577039971451 0.06430637538755377 0.09010328184599967 0.02537138888525308 -0.061574321168371374 -0.03921549385719698 0.7015512085884692 0.09720981098379387 -0.6652194640369705 0.004995910552694622 -0.06050088559853451 -0.021454313219034016 0.05379776254674606 -0.09774074378659942 0.056659400365257254 -0.13190967635882445 -0.08165052309295615 -0.096126348111628 0.030879977408308106 -0.018697576409503282 0.15077823112855324 0.09689665061874925 -0.05303800156258608 -0.18013585835506396 -0.002161269317376923 -0.024252187679145328 -0.7450007951316717 -0.04073270183267178 -0.08626950992220626 0.792110604135281 -0.05653213075877361 -0.014489966086058915 0.15757185701161894 -0.5436955017878443 -0.06128610050399123 -0.025685320581246087 -0.17652654373725082 0.05842060603073809 -0.037375869545296925 -0.671976580255146 -0.08849017172260888