0.06422924229271519 0.05883275386749223 0.001196848521578584 -0.10437573260461379 -0.1429163118819732 0.011026690127806816 -0.02188445877791715 0.15371211694589657 0.006182988882260319 -0.07049656335866568 -0.15428521584054722 -0.0904660645020571 0.04982515105224322 0.18379505237420607 -0.04436875592336229 -0.012714876463507134 5.142206322571789e-05 0.00354349437688422 0.13984718603834626 0.08913011929945296 0.15708746117603267 -0.051562445458324106 -0.11474627720566047 -0.1912805621179738 0.038943985363365186 0.07672943164225496 0.036850850279762336 -0.007218886345942406 -0.06118942702512687 0.060258430570425243 0.08835827413043491 -0.0740606265608402 0.13018343769633708 -0.06884000159184918 -0.00627760547859564 0.09916256383479051 -0.10834680143721985 -0.07801266923005275 -0.04088208292634249 0.07399532054054354 -0.10562760273384389 -0.06783032938041221 -0.004858356533565827 0.004412527245398852 0.09679586337482683 -0.12348931350561312 0.06160388885472616 -0.055051689558505194 -0.13490629709330312 0.15819689219012756 0.12031862908711535 0.005533785334035631 0.07875726070556115 0.10272508437506823 -0.08164769487947875 0.002330447905389535 0.11696745322669533 -0.11642726445250916 -0.03438053436239886 -0.12100151408675289 -0.04222934098285631 -0.05019256169399097 -0.03874935285405585 -0.0905848494681085 -0.04619912426388172 -0.05487711165385387 0.1021401584058757 0.052347660363780815 -0.0051476056392104905 -0.08069073028284814 -0.10923846001355382 0.08429901645939675 -0.05568829470123957 -0.08797723664193237 -0.05291973081716693 -0.025968913259935923 0.01860733068854215 0.021223685265466675 0.075407884617354 -0.07348829899713796 0.016607269539377852 0.061327752375204055 -0.041965031577876115 -0.0669479267754589 0.04423711544150446 0.053247803580547 0.08903653114438215 0.03855189213126909 -0.08712208773048867 0.013010039106422754 0.08622811516130956 0.007758303789180188 -0.03486158776387544 -0.01799977901153029 0.05590966668342629 -0.05212114617527152 -0.03348321935911008 -0.00010850055340626476 -0.07692457837219654 -0.036723837783594816 -0.016252971523752654 -0.02690736591380527 0.04792330604384004 -0.08339553080852088 -0.18619003496894385 0.0031267185544397763 0.09859794958057212 -0.12405264220825088 0.04471302663665848 0.011192783392025885 0.043279636624241585 0.1332880447635898 0.21230318711622792 -0.13770597132562737 -0.12479980478692056 -0.18041533726869574 0.14196217549882004 0.02296329366439271 0.08676521861170218 0.0732800396410738 -0.010361031519349896 0.03920546655486796 0.11732843611053988 0.06384023438441264 -0.019417228184347206 -0.06703585850357487 0.07643426899933933 0.162274661803927 -0.035040279433584814 0.0660801794585249 0.027591022244391195 0.036429703581943716 0.10926237127295375 -0.08801426052745487 0.013000526024725997 -0.08056217512478384 0.04381802562621486 0.029565372361942635 -0.036502465801408104 0.05907392334402084 0.0489625459416318 -0.005332725066823074 -0.09150607573079723 -0.04821846868675567 0.006397161775595434 -0.04594484216123055 -0.0030902088895495166 0.132694634153965 -0.048723690457948346 0.010264358040485547 0.06777402222118005 0.06423669849188292 -0.012719247338881322 -0.10076616087648453 0.09438853948491487 0.09100008262865619 0.034878299934423804 0.028565213232202416 -0.10629351845261692 0.03771062717689635 -0.03772476824428341 -0.08990993488827097 0.02101645435066703 -0.05518435848162754 -0.00020800224574802888 -0.037603669285386845 0.031675990947042224 -0.0817659656248979 0.03584580605401569 0.06161674437053259 -0.07524359112534783 -0.03773505265692856 0.05728263577155296 0.08046987252129367 -5.86211520773184e-05 -0.008481812218766038 0.1484326137145121 -0.0986059200003721 -0.06264441430409856 -0.04039485887727882 0.009149013489119727 -0.01799617946710449 0.028077732072822614 -0.03865859291246245 0.017293496973125058 -0.00045508525954760334 0.05120814744269891 -0.058175322789151426 0.016832241065990364 0.028192146163499833 -0.0696406431162736 -0.0167003434738164
0.07982426851749477 -0.1324094988133784 -0.12858446864033338 -0.8382667909763692 -0.10297165316823557 -0.03404577673079943 -0.1196758532967939 -0.16901635140313473 0.16006042776142757 -0.7704189780944602 -0.6413313445654631 -0.5843312730313356 -0.033064900874768856 0.21016300084477357 -0.1052337097295349 -0.08633867259724486 0.08004898293379117 -0.6882411217431244 -0.013014152871480814 -0.09313744068663314 -0.022716210650593135 -0.09656934918631756 -0.6667233022760065 -0.02255320271016761 0.060754653480553436 0.07059220839626552 0.15140352341737795 -0.6520055364498577 0.028835693284769693 0.1259316043985186 0.023344331152895283 -0.14672437277415376 0.7675817657559814 -0.8543588114422254 -0.5861225606038035 -0.11627402670409652 0.026046817685722888 -0.04021411032504042 0.5581379024654194 -0.03073136764558579 -0.24675674080840726 -0.016421121670500752 0.04495882409887741 -0.0476404846960986 -0.004789450968843365 -0.08774506602646824 -0.7234786047891798 0.01586087829165656 0.09222572750564116 0.7475847538087641 -0.08407507337404875 -0.8163447940922974 0.1634655967882346 -0.060382357742799236 0.07028393312722735 0.048774084079909547 -0.020317114290797265 -0.801162429924904 -0.10726025324126044 -0.6127363065365898 -0.013063003831545246 0.6575673468083514 -0.014826266379555109 -0.12526028936310685 0.22583387461281104 -0.7707066845382081 -0.10130326432687715 -0.013601135723202382 0.028722821855989244 -0.1870071315536005 -0.0645719703441146 0.10070856816567171 0.1317870347380311 0.7492904236459611 0.08399331229351988 -0.8606256182875436 -0.13348781947922173 0.03617696414118931 0.21617809669060192 -0.0876753891307974 0.6400290808142719 -0.7154714182139872 -0.0644963799111728 -0.027149820941914534 0.15101991482571409 0.665300453786551 0.7338951721368135 -0.12943961755177708 0.0647689168462691 -0.003964126854070591 -0.08487957155321511 0.14222057136652924 0.0205143179032679 -0.12394876964053492 -0.1350407657886384 0.18618900652767936 0.8272964080077945 0.070895084348665 -0.09353056235999375 0.11315347879724383 -0.03971968718712514 -0.20919369495296877 0.8721837554387882 -0.12093697939740461 -0.020255664925242535 -0.18188652249758352 -0.7490705943256712 -0.6246011762949759 -0.009190151139700302 0.02537061755430469 0.06911690940231967 0.0869624222241728 -0.09403424146928967 -0.6400079977683494 0.010321436530666094 0.11685689579076004 0.03226528779160895 0.08161298498680139 -0.6739306186577232 0.0001488668730384533 0.7222778996128594 1.5683729283843956e-05 0.0511901497205699 0.07364179385586672 0.06698212244750398 -0.009490198878622366 0.5814094713988504 -0.10777138854972408 0.572433236042169 -0.11490208605723437 -0.7133898530946101 -0.07046930966515606 -0.030525679392682914 0.022022527017678203 0.5373129953002682 0.04557228931316023 -0.07126583742452242 -0.04968862547437894 0.06832603806990813 0.012845745614416586 0.15951046879522848 0.2251756722035219 -0.6687125647918934 0.02144325747544049 0.919656604208771 0.7108012664318274 0.08940162779328474 0.13240152839357844 0.02273369415208988 0.004789193858527236 0.6894937632033029 0.06948097760995776 0.03617182193486673 -0.07566242383032132 0.10601403953898517 -0.7576760766064952 -0.051854779887762305 0.5923073492582767 -0.04795570194367225 0.0028834921953821307 -0.1592171059245258 -0.6955057737253377 -0.08406144652729393 0.15765850318815428 -0.05462540065436399 0.17954656151049725 -0.010987095139123014 -0.018347392158936143 0.7290519851118993 0.778468587871814 0.1741431311067388 -0.10504884741223844 0.11977149833439373 0.06676589267163985 0.7720922520318252 0.1604733469291301 0.6038279483033665 0.12897321943831982 0.04979198382146263 -0.002963967724330379 -0.018130905272755873 0.7309733705043281 0.556601668326551 0.09639914215704043 0.029409306400052574 -0.1339634735640596 -0.03797853612630233 -0.15050749396566984 0.022503323308838665 -0.004918520347539916 0.06488461648852696 0.13879097685969
-0.014413604322168724 0.14586845253176167 0.20050362337813857 -0.7176671403137254 -0.06790617692367015 0.03484641825522385 -0.13642273373782957 0.22197207766455965 0.09807473008725046 -0.8520268208749391 0.6415362614874177 0.3530469168269146 -0.10052987649596236 7.044822661923351e-05 0.06078962048354692 -0.16500311647868354 -0.01629462339496549 0.09561418436189985 0.07066317084351702 0.07519088351054146 0.06916704591396475 -0.058809613939040654 0.7605441421829096 -0.19160606377819261 0.12013093855634148 0.08729512297324321 -0.016467915748036153 -0.7554690416528473 -0.010645652639304247 -0.06922361018351304 0.029541975323174926 -0.02320626291313423 -0.28385313144007246 -0.8029981975820623 0.6488214822949212 -0.04245405539915269 0.12332836244771664 0.16289044101105496 -0.13044311911562698 0.0039001063853545737 -0.13846624653041958 -0.03841125278834675 -0.020513032351687253 0.167613300408021 -0.037394124377742054 0.05913537270957557 0.7267891572196515 0.08237891661854845 0.003394370393529638 -0.7526817087156973 0.11237751986316775 -0.5580923939394647 -0.04090650840637471 0.004168786665708949 0.02405832650078437 -0.06387185895329646 -0.05754694517653315 -0.603628944918683 0.025643925820349384 0.21253201529758234 -0.12703563609597476 -0.8893268428769779 0.07254110459252022 -0.07301444468451296 -0.07128846313234175 0.2207487467804198 -0.17322190484405006 -0.07859913786114206 0.01800183589405932 0.1606723503138136 0.009113532265493983 -0.11677256360706986 0.11471568107804114 -0.7364289943022607 0.027099684430269454 -0.7441466746614925 -0.23530916109309796 -0.1406740528150158 0.11028387055893264 -0.10468632186649712 -0.17902539889970456 -0.6174661079120913 -0.06706774018277481 0.06847207672946917 0.06198492634322874 -0.6398560455715173 -0.18549455156381603 -0.08478984005288623 0.048191472103562165 -0.10140919377712214 -0.1388971634202511 -0.038802060468862205 0.10051522120794303 -0.14867686851483425 -0.1060682898156883 0.0345294012354373 0.6108424319479867 0.17247654203759327 0.010766237377568556 0.021622206255465987 0.10350592840515077 -0.10986503785395918 0.6921129459937049 0.011495659344425363 0.03273605678044039 -0.03826187169467604 0.8331209851093716 0.1708886287251831 -0.01951287322194704 0.09665393848032386 -0.07409585067414981 0.06692041597163313 -0.13879843305885775 0.18746427369567714 0.12271823966754349 0.048492291173432615 -0.004181642181515378 0.038360344945753286 0.8703235623015978 0.03887379424706208 0.6994300484804082 0.0022494581558090295 -0.04468962959789077 -0.01605268258748848 0.05149148301107261 0.12302008717867845 0.5542807335028583 0.04631225280297831 -0.2009887905446732 0.08159755836783367 0.6438188868740073 0.0971787006355423 -0.06727111444283253 -0.012075443107295334 -0.29536267474156874 0.12125091109339765 -0.1250980527536297 0.12070095212719859 -0.017056441261654495 0.17184405065991695 -0.20450374567646715 0.15976783622167323 0.7314636798771854 0.16526819721461214 0.729613514042324 -0.7561696672642977 -0.24901288383243567 -0.038172140194347164 -0.12337541363556816 -0.008775432199784886 0.5260862733465134 0.08461783325139621 0.026748985959070066 0.021772358680085084 0.041138164801206564 0.2170126767767553 0.0319248737330547 -0.6858122005866575 0.09760318976747061 0.200616494806919 0.02856881277662822 0.2897769531236752 -0.08744296140501714 -0.1259819980204798 -0.0024960269489763464 0.09207866040481562 -0.10451174396184582 -0.008326260477508242 0.734356170933632 -0.6496254662534553 -0.09858072318939151 -0.09365731774584515 0.1128104936355283 0.09750805895050305 0.6992390155155248 -0.03211924913204791 -0.20959890081118743 -0.10240369647990752 0.004233064244741097 0.04641355426753297 -0.025400442350975612 -0.7670426054230596 -0.3452101943913152 0.1714164762041951 -0.08000861661415898 -0.1168224430083988 0.1263787192382662 -0.204465436239364 -0.003405169026807039 0.013860045811543872 0.11033889216658417 -0.02067732584369342
-0.09078462418374043 0.1107672379532544 -0.043406134899776856 -0.2765450278144334 -0.0434668129343832 0.10765954556220814 0.16174861409712787 -0.08293838866644426 -0.046694832953377646 -0.1526214549848791 -0.16693170095996412 -0.5720658254004213 0.005318583999436002 0.13976902450224316 -0.20237358670734182 -0.09197350228551902 0.058334474074835024 -0.7076130985118331 -0.029316232465614028 -0.20800867350593208 -0.12004223549727713 -0.11293930590390872 -0.2184093000139658 -0.0631295814706332 0.12146122733199081 -0.006413873946143793 -0.03209302387980279 -0.278531719227159 0.08109850724422807 0.02426247209179047 -0.008625022664849663 -0.03562854783688703 0.5348838170334852 -0.2775629275559865 -0.20651074880416692 -0.09965493009017676 0.08232389501089693 -0.0575510589415912 0.5886481552391346 0.03174875316650661 -0.0208192507381964 0.10895615288644463 -0.08179296220809139 -0.07433316349593651 0.13523359852573483 0.05913331582704655 -0.14139961812713064 0.09127339089470088 0.11329720346395973 0.32236002926601903 -0.041813079381044116 -0.29215779465102587 -0.018801706087535362 0.11529700750280789 0.02752700177567517 0.09705708745601349 0.14262423456285114 -0.37890681531281195 -0.17466686482069274 -0.4581420440960562 0.00964626484051242 0.23623347267958025 0.05463105708131881 -0.02454940720458998 0.01697005219543529 -0.5574940982338333 0.07395675399312425 -0.005045018623075182 -0.10441764158614275 -0.07437584380841383 -0.16541320743290866 -0.01295270350592608 0.09263324735670499 0.30234707647920184 0.11561813828765251 -0.310477161785504 0.083045860778586 0.15473541600408836 0.07320702031129328 -0.05685094755077306 0.5507439239941935 -0.2964499942684765 0.0006304344951473013 0.13208733958726931 -0.1645014942519167 0.20711367249548848 0.5430648101823808 -0.08921522281409151 -0.12546597761600972 -0.1604383799261366 -0.04899057096608982 0.04467446008923919 -0.06838028834661126 -0.078577026373955 0.0073438419595809 0.1605155130209752 0.4457860936338645 0.2002611683500293 -0.17906139434396257 -0.06349339256795516 -0.13339731664794446 0.012671167709765275 0.30037118369975363 -0.023338417615624323 0.011589247499496169 -0.11399191553813917 -0.37144161728401837 -0.6165716211222801 0.1663909979651457 0.1605399385010074 -0.07559557514812787 -0.10465623995951008 -0.01864306902248402 -0.7010362166252637 0.08014308530949424 -0.033196798466942824 -0.05117883686666024 -0.027723176946881284 -0.3157875182548239 0.0012050760516946987 0.37732224443451146 0.021677999194065895 0.08379533735010085 -0.016484627918584516 -0.10216458388590792 0.026848487651411828 0.2441822952130117 -0.14835933727441547 0.5647281540884275 -0.03583037943504797 -0.215862365222396 -0.026446110006670583 0.11433104404511277 0.0378324974667413 0.5951612737673041 0.016559961241210192 -0.03372670282848385 0.017386828017879732 -0.06544588830863567 -0.05022830002793285 0.08683566683832142 0.09033262424798637 -0.2014413047010595 0.13222489360639808 0.0935678433558324 0.21770301797556058 -0.22855075932334187 0.04423968654466574 -0.004984340588468836 -0.08727146882415938 0.2786142516386363 0.051807471589594645 -0.07118613322652255 -0.01727087126530574 0.07792088084719483 -0.5901620207804997 0.01891791995042548 0.30476211367859773 -0.04908441623147675 -0.02447124566848689 0.15617420533314394 -0.46511281898693446 0.0944402186584567 0.027838876589139156 -0.07451879714418133 -0.16448863873611028 -0.023777047814939698 0.04262991885538465 0.25981665931615894 0.20165213516028493 0.07533897905263154 -0.05820694735803524 0.05620457221602578 0.11790847698372599 0.3827611560618957 0.13842253777667776 0.5307445980541311 -0.1645986819514133 -0.04285746148515845 -0.065576500349229 0.09262296294405983 0.21442974654092747 0.650316578783209 0.036861906023355866 0.09103813495544322 -0.0661367437280732 0.09793177675148294 -0.023376469942411354 0.13847601672243248 -0.07164096137575404 -0.11477378800948622 -0.009893090743995865
-0.022161623698703767 -0.0053424952588359605 -0.15526506325531325 -0.3322559482234923 -0.018847728834122376 0.11706206982303063 -0.05105696657681529 0.1619879838014436 -0.035254709437236055 -0.3728127865999321 0.7169937683957845 -0.7825029058421878 0.03230745388345404 0.1428497203100959 0.005220882079307138 0.050108486620616934 0.049774243209649766 -0.6813806471778652 0.040669709805220285 0.061274787650081576 -0.2198956547515052 0.1442589419527967 0.7124940807532181 0.009740624326531612 -0.16631874996631357 -0.09083296092317261 -0.024343718951687108 -0.4895321283715634 -0.02297100697387657 0.16400090046641433 0.06191139279281596 0.2379435133921515 0.8053888093014259 -0.385695041879239 0.6140419127218909 0.04408696301688536 -0.04105049018340672 -0.03131809338699123 0.873382660842896 0.09726483259144539 -0.011249861882206431 0.06122182292495908 0.05855841716018303 0.12358161610910329 -0.10951485360339204 0.0652607688810231 0.560300457334377 -0.07471702919791648 -0.08125663008864716 -0.7725730483229856 0.009456260316893391 -0.2326789225591025 -0.03174695339429371 0.1329041790616098 0.13148672988879292 -0.03926074527283561 0.08617335066397416 -0.29233982875484493 0.09099211220885618 -0.7945606083376702 -0.18849708583556568 -0.7161697298325923 -0.08336262068805643 0.07550892897159255 -0.023297537075359875 -0.865165415139426 -0.005539184650674331 -0.1615704366480508 -0.1208855573341789 -0.172761934488496 -0.044711483974761705 0.00674246093015613 -0.05409446785155844 -0.5120444505414665 -0.02104885025049923 -0.35623328497469614 0.04495445322350322 0.11463263444593161 0.033760127169580566 0.13121110762990307 0.9474422589624716 -0.28771878504306575 -0.08590698437646495 -0.10968814595646272 -0.08925661757498822 -0.8230677146384276 0.8726321558301167 0.030729053652740625 -0.14941760333560072 0.03471966286937247 0.05269527351118666 -0.016313135337726742 -0.004000379408644723 -0.010554892697710854 -0.06950540308998997 -0.08461989013392524 0.18623605771553087 -0.08033900337038422 -0.2627374325073798 -0.13888045124970277 -0.08917665626667222 -0.03542928734188737 0.22977897530348815 0.21153879814637763 0.10220495020554012 0.08237737395665168 0.6878063481985509 -0.7254673530844344 -0.04936029560068274 0.07561640108373428 0.13767743208053707 0.1753870308161689 0.14059023485195787 -0.682309843860354 -0.08056500333826125 0.07104189433917443 -0.14411984527177116 0.04670563158665505 0.5215485333771598 0.018538168013503557 0.24122501235690072 -0.029478983295723425 -0.0007674742936438395 0.015109859058244945 -0.08387247044493942 0.029008214306891975 0.3855749713616069 0.10235998772616565 0.7063964524959125 -0.07144247221170277 0.5723175363999111 0.014767131006845536 0.06846924851599176 -0.02686031472595374 0.7403013327734733 0.2436261655992256 -0.039735885137041245 -0.018775737945606375 -0.11240220245351609 0.22888088896925096 0.07165355978124434 0.07932136073914725 0.5794844864619956 0.19512307579251556 0.28392460810795617 -0.6137341516734849 -0.08942116817731051 -0.06104827346157229 -0.053156786528637485 -0.10146781492919944 0.25782354014553016 -0.0709472777428391 -0.032070655282299604 -0.09067175275495998 0.03696963524581375 -0.7599563880002396 0.11082688754659624 -0.6310878124605841 -0.04201208276572765 0.06429249143048282 -0.080690473172532 -0.8744712659213844 -0.0762900301119912 0.008244242286663222 -0.07149955070188331 0.1674819170364793 0.10601661064214646 0.039297512048041994 0.46423478725735534 -0.5768195380353227 0.046997194685144864 0.09871339211251387 -0.2789582652416164 0.05235511656294854 0.2978011089797323 -0.01796378356727229 0.905304192141841 -0.005246593110919996 0.06736238860505818 -0.11273618875416713 0.07986154951333342 -0.6112301543047086 0.7346554473416057 -0.061671251757551865 -0.18963428476380245 -0.06148716077120379 -0.08662097972435405 0.15064453376416634 0.04326369578464161 0.012721818442042605 -0.10898957722754132 0.058583099750531366
-0.05001258447270096 0.07857728348427112 0.09722395205118094 0.3547309893975568 0.14538997023344638 0.07267814439101676 0.10882554084585129 0.06295423223503352 0.19030174314447226 0.5814310686654051 -0.1499091982600386 0.4347097812150449 -0.03590751252988655 0.021580297273937028 0.01749121480622794 0.0021666686340156235 -0.04290939776901642 0.37252867970061 0.15760888089714148 -0.08301963552634088 0.017301467392925044 0.03770522786025764 0.11522707349682093 -0.16217078923621103 0.161568893986154 -0.04584431202762427 -0.047327838551686235 0.5846269498948835 -0.12912182920104215 -0.17668029570629573 0.056153921483748453 0.09857738075528184 -0.3687640704518553 0.42675993024034886 0.013854389384589043 0.01870194728487747 0.07538577313016694 0.18208732565447996 -0.2310041059598409 0.13195467066414696 -0.08807622411364185 -0.11046101956674524 0.06792443175611527 0.05834810092158983 0.21407801962846357 -0.05317118470634069 0.09357067156930983 -0.14479501696192482 -0.09736124895999362 -0.09292043957982062 0.03099104906487566 0.4463450514611281 0.0712565814531418 0.0054790208367002415 -0.034327826747592494 0.04453433496694911 0.052648993654283514 0.5767354629619487 -0.0812219201959698 0.27557572192262864 0.1195642674195941 -0.22502551977890278 0.0024363773556345136 -0.07099227204816161 0.11215691921192943 0.27768119830140564 0.06290846659876263 -0.017083180734531873 0.0029143454333175616 0.09644233669015002 -0.03598387429377674 -0.07044205597164642 0.02921544522169162 0.009672232982441405 -0.03525573787850057 0.49512504907830857 0.08194825683903306 0.07921337440637326 0.02776817125220379 0.059480928974452396 -0.34404779865209784 0.6345693432512813 -0.02113909597146037 -0.08154227964986602 0.06683582667762682 -0.12301931584773008 -0.2247966915975483 -0.03660736681038857 -0.010510669723336738 -0.07970625488239176 0.052785776342463925 -0.03096096715788861 -0.10494600328578702 -0.09617494196137631 -0.0780239820839624 0.08852591005655078 -0.4190527914040783 0.03570285271824818 0.189413427002248 -0.11180930606452356 -0.10061369445902027 0.0016023114901133695 -0.6278929596723701 0.0017601772242163236 -0.15466445355683686 0.04007758474717614 -0.06410454378939283 0.23313169382580495 -0.09591783164524771 0.1434531582220497 0.07388064933955019 -0.06556595882626771 -0.20838096924368626 0.24762345968407679 0.13052950818184617 0.13225728950623028 0.025490430961620618 -0.032854584636175674 0.11989928216150965 0.15863912193386873 -0.7015391244036111 -0.10192701395380512 -0.09214730885922195 -0.1305945570918267 0.036031696812576654 0.019444738988172963 -0.678107118632916 0.19597745337301087 -0.24064111482897266 -0.18117818357664928 0.1802682701678702 -0.05775726141512634 -0.03598875938978318 0.15718619153742605 -0.386890861959553 0.09961816331497036 -0.018865726556251378 0.10297525271266136 0.08632247464732876 0.06741483910954842 -0.07939180896576649 -0.10655602808538421 -0.10289991939003569 -0.08644820159191563 -0.37464058383729026 -0.022792572414483323 0.005350722788952075 -0.06517026604974582 0.04757980666149225 0.09280165461376921 -0.5704671134547338 0.13231359666546247 0.06353041645347769 0.08022098973528119 -0.13685236507608042 0.27826149628490787 0.10276622202564882 -0.13807646729116865 -0.01966533963941129 -0.12288896091745288 0.049756502597836885 0.29299674561255346 0.009805930346828274 0.0028122726378145115 -0.0650980180509137 0.04093041966577467 -0.12485225529141078 -0.01342115850191237 -0.49337207094294383 0.04245225562693979 0.1279604619030893 0.08219996783852296 -0.06373456204448379 0.055830733816374815 -0.5373896141744745 -0.0773917478166022 -0.4657795060366559 0.01492345407905172 -0.08199247981340718 -0.014846835204845399 -0.0081550250069666 0.002946741333149764 -0.3025347670099757 -0.13961681519509503 -0.12752286014503844 -0.1329399173955517 -0.04663312647750679 0.034739203253398236 -0.09769112149558659 -0.022586884161580455 -0.006991343716168604 0.17244363191712883
0.10599629892717229 0.12008440158912222 0.08626848148094175 0.40065603406444544 0.03388533989353519 -0.03247329003735698 -0.06031782305345096 -0.13891747513522526 0.0899436163396838 0.2403734629898828 -0.4209284111602363 0.7334406010978982 0.0841977149948421 -0.046364703307468544 0.06683068447130426 -0.0015359770285521936 -0.05737622392662376 0.9050717644160606 0.004982026595623678 -0.025188069229853394 0.12801651195200534 0.11236029347198713 -0.17908736248589158 0.08481786507734425 0.026582378474218734 -0.028478309945350957 -0.13808083816654285 0.3652624850565 0.05139506664252439 -0.029559973045303927 -0.025758339911026603 -0.19328885079725422 -0.8154040274455827 0.42331388067327735 -0.39817749061696583 0.05062964923140958 -0.006938378991046115 0.025196810980601766 -0.9639055467248174 -0.043064949510274224 0.056391234305535144 -0.07179111380037313 -0.011319024557245023 0.03676368988259474 -0.10687253088453853 0.13823561857685224 -0.44441903808300876 -0.050649446725751474 -0.04874683038639992 0.15292355960633017 -0.0964374515941436 0.25660458013676457 -0.13112137612957417 0.024482558522396548 0.1329193485702614 0.08242853890956126 0.21448039727320484 0.26895461706168516 -0.12455349310406935 0.8921861667026441 -0.076365620544933 0.466751383031622 0.0641485096534508 0.13477414239081303 0.260972370187157 0.9725850767766863 -0.009878178345660408 0.003628083670890526 0.14198762942011675 -0.09896047512631342 -0.18144994918079718 -0.0795473607070243 -0.007296019440780982 0.3832671491640367 0.16147427738981868 0.41067588019429274 0.12524100608939723 -0.22704820663588637 -0.11078240746190599 -0.06517206582195872 -1.0236978362921014 0.17926862525876222 -0.004168272445076692 -0.10689078571698367 -0.0755004443311603 0.3408452325544 -0.8595023033163778 -0.04501204593431603 -0.13527884994137349 0.006945835190213844 0.03052773627521194 0.18518010564719076 0.08539224952357552 -0.013814794395905241 0.08385627249502332 0.07778692637249184 -0.3751836008249539 -0.00959509988760283 -0.023756736099965536 -0.011956143920611667 0.006092743161299184 -0.06665070725001425 -0.2845218753723229 0.004754226855533747 0.025831359240807126 0.001902873449667691 -0.2149192845828363 0.9214836301151806 0.04836399312568444 0.0007337928422309943 0.031945442558344986 0.15536225095480988 -0.012649570443210472 0.9692159031941373 -0.13089460483074877 -0.08606433588993564 0.0020738518098932027 -0.10155137578194125 -0.3850394105731111 0.004432838960373011 -0.2750820701156617 0.027754030184816716 -0.05702629678637276 0.1030035348474355 0.01982629069730779 -0.05604053583433575 -0.26600299063252897 -0.12227472437222166 -0.8139194724802563 -0.08630524825614813 -0.29422753269586105 -0.1213090180248427 -0.176342966971535 0.20378075146751357 -0.9014794190791119 -0.10005936461744704 0.021090502121712065 0.018085139636484983 0.053652238107817274 0.0028305274702596413 0.017902591312033683 -0.05176479127711729 -0.38299049846388233 -0.009020201220739304 -0.26949814826998103 0.41155185504134284 0.027502833405959087 0.1007857012605103 0.06948252027185452 -0.08255195186130299 -0.24473508239268815 0.023868321977165347 -0.03026522664244465 0.09470324251185626 -0.2625895940756058 0.8901136004443314 0.015062293649761156 0.2603848731148032 -0.02828367743604161 0.20371775944006207 -0.19547428848434723 0.854989760158005 -0.060310623964599366 0.1393820734764696 0.16318894608808024 -0.0015940839599972547 -0.044495768419529826 0.06244926757415696 -0.3510021184827439 0.19619574003140405 -0.039536624642041586 0.07538680157143146 0.14498887814028577 -0.10194398323466959 -0.44739586132314557 0.17850295073733127 -0.700859067617451 -0.11123055074291811 -0.04813927870938806 -0.09979145566804104 -0.1679377736269753 0.4310845257576318 -1.0539026420102557 0.057288806419140054 0.12043278606747647 0.053057541946611844 -0.12026437881041224 0.18428921840180518 -0.060233747980076906 0.04400957281173066 -0.22340649611824104 0.019670738956049993