
     Program PWSCF v.7.0 starts on  8Jul2023 at 21:47:15 

     This program is part of the open-source Quantum ESPRESSO suite
     for quantum simulation of materials; please cite
         "P. Giannozzi et al., J. Phys.:Condens. Matter 21 395502 (2009);
         "P. Giannozzi et al., J. Phys.:Condens. Matter 29 465901 (2017);
         "P. Giannozzi et al., J. Chem. Phys. 152 154105 (2020);
          URL http://www.quantum-espresso.org", 
     in publications or presentations arising from this work. More details at
     http://www.quantum-espresso.org/quote

     Parallel version (MPI & OpenMP), running on       1 processor cores
     Number of MPI processes:                 1
     Threads/MPI process:                     1

     MPI processes distributed on     1 nodes
     109280 MiB available memory on the printing compute node when the environment starts
 
     Reading input from pw-si-4.in
Warning: card &CELL ignored
Warning: card / ignored

     Current dimensions of program PWSCF are:
     Max number of different atomic species (ntypx) = 10
     Max number of k-points (npk) =  40000
     Max angular momentum in pseudopotentials (lmaxx) =  4

     IMPORTANT: XC functional enforced from input :
     Exchange-correlation= PBE
                           (   1   4   3   4   0   0   0)
     Any further DFT definition will be discarded
     Please, verify this is what you really want


     gamma-point specific algorithms are used

     Subspace diagonalization in iterative solution of the eigenvalue problem:
     a serial algorithm will be used

 
     G-vector sticks info
     --------------------
     sticks:   dense  smooth     PW     G-vecs:    dense   smooth      PW
     Sum        4051    4051   1007               194537   194537   24273
 
     Using Slab Decomposition
 


     bravais-lattice index     =            0
     lattice parameter (alat)  =      20.5696  a.u.
     unit-cell volume          =    8764.9418 (a.u.)^3
     number of atoms/cell      =           64
     number of atomic types    =            1
     number of electrons       =       256.00
     number of Kohn-Sham states=          128
     kinetic-energy cutoff     =      30.0000  Ry
     charge density cutoff     =     120.0000  Ry
     scf convergence threshold =      1.0E-06
     mixing beta               =       0.5000
     number of iterations used =            8  plain     mixing
     Exchange-correlation= PBE
                           (   1   4   3   4   0   0   0)

     GPU acceleration is ACTIVE.


     celldm(1)=  20.569558  celldm(2)=   0.000000  celldm(3)=   0.000000
     celldm(4)=   0.000000  celldm(5)=   0.000000  celldm(6)=   0.000000

     crystal axes: (cart. coord. in units of alat)
               a(1) = (   1.000000   0.000000   0.000000 )  
               a(2) = (   0.000000   1.004878   0.000000 )  
               a(3) = (   0.000000   0.000000   1.002215 )  

     reciprocal axes: (cart. coord. in units 2 pi/alat)
               b(1) = (  1.000000  0.000000  0.000000 )  
               b(2) = (  0.000000  0.995146  0.000000 )  
               b(3) = (  0.000000  0.000000  0.997790 )  


     PseudoPot. # 1 for Si read from file:
     ./Si_ONCV_PBE-1.0.upf
     MD5 check sum: 2de5a83d12544a9ea852f39b88f19b1f
     Pseudo is Norm-conserving, Zval =  4.0
     Generated using ONCVPSP code by D. R. Hamann
     Using radial grid of  602 points,  4 beta functions with: 
                l(1) =   0
                l(2) =   0
                l(3) =   1
                l(4) =   1

     atomic species   valence    mass     pseudopotential
        Si             4.00    28.08500     Si( 1.00)

     No symmetry found



   Cartesian axes

     site n.     atom                  positions (alat units)
         1           Si  tau(   1) = (   0.3737825   0.3791124   0.1241086  )
         2           Si  tau(   2) = (  -0.0002040   0.2535737   0.2473006  )
         3           Si  tau(   3) = (   0.3732649   0.1263764   0.3723266  )
         4           Si  tau(   4) = (   0.0004936  -0.0008827   0.0004155  )
         5           Si  tau(   5) = (   0.1235951   0.3796363   0.3721017  )
         6           Si  tau(   6) = (   0.2482700   0.2523856  -0.0006170  )
         7           Si  tau(   7) = (   0.1236651   0.1264827   0.1249192  )
         8           Si  tau(   8) = (   0.2483287  -0.0002920   0.2477822  )
         9           Si  tau(   9) = (   0.3743870   0.3805670   0.6210635  )
        10           Si  tau(  10) = (   0.0007366   0.2538085   0.7441332  )
        11           Si  tau(  11) = (   0.3732691   0.1257602   0.8681659  )
        12           Si  tau(  12) = (   0.0002844   0.0001798   0.4965405  )
        13           Si  tau(  13) = (   0.1247059   0.3802298   0.8680022  )
        14           Si  tau(  14) = (   0.2481151   0.2536320   0.4965357  )
        15           Si  tau(  15) = (   0.1238047   0.1265270   0.6213631  )
        16           Si  tau(  16) = (   0.2485919   0.0009119   0.7450887  )
        17           Si  tau(  17) = (   0.3741264   0.8865138   0.1234803  )
        18           Si  tau(  18) = (  -0.0007192   0.7600742   0.2476973  )
        19           Si  tau(  19) = (   0.3727289   0.6330872   0.3721827  )
        20           Si  tau(  20) = (   0.0002320   0.5058411   0.0007019  )
        21           Si  tau(  21) = (   0.1252481   0.8862663   0.3728285  )
        22           Si  tau(  22) = (   0.2485743   0.7594824   0.0003100  )
        23           Si  tau(  23) = (   0.1242541   0.6339521   0.1247701  )
        24           Si  tau(  24) = (   0.2498568   0.5063774   0.2478652  )
        25           Si  tau(  25) = (   0.3732299   0.8856899   0.6209000  )
        26           Si  tau(  26) = (   0.0003463   0.7597560   0.7440770  )
        27           Si  tau(  27) = (   0.3736848   0.6322839   0.8678724  )
        28           Si  tau(  28) = (  -0.0005244   0.5074446   0.4970749  )
        29           Si  tau(  29) = (   0.1244227   0.8873918   0.8682204  )
        30           Si  tau(  30) = (   0.2486241   0.7598183   0.4965767  )
        31           Si  tau(  31) = (   0.1242274   0.6331170   0.6209035  )
        32           Si  tau(  32) = (   0.2491609   0.5069855   0.7453562  )
        33           Si  tau(  33) = (   0.8717662   0.3800579   0.1249671  )
        34           Si  tau(  34) = (   0.4988720   0.2532781   0.2482844  )
        35           Si  tau(  35) = (   0.8723831   0.1260536   0.3714291  )
        36           Si  tau(  36) = (   0.4979424   0.0001732  -0.0005672  )
        37           Si  tau(  37) = (   0.6227062   0.3792673   0.3714484  )
        38           Si  tau(  38) = (   0.7461556   0.2527384  -0.0003258  )
        39           Si  tau(  39) = (   0.6228386   0.1265210   0.1242252  )
        40           Si  tau(  40) = (   0.7467361   0.0007628   0.2481959  )
        41           Si  tau(  41) = (   0.8717419   0.3801981   0.6205190  )
        42           Si  tau(  42) = (   0.4983774   0.2537088   0.7450358  )
        43           Si  tau(  43) = (   0.8711449   0.1265991   0.8686314  )
        44           Si  tau(  44) = (   0.4977219   0.0009220   0.4969631  )
        45           Si  tau(  45) = (   0.6225375   0.3805552   0.8688357  )
        46           Si  tau(  46) = (   0.7462515   0.2532347   0.4961225  )
        47           Si  tau(  47) = (   0.6231074   0.1260907   0.6203149  )
        48           Si  tau(  48) = (   0.7465460   0.0002295   0.7442034  )
        49           Si  tau(  49) = (   0.8713208   0.8862006   0.1241213  )
        50           Si  tau(  50) = (   0.4984020   0.7594824   0.2489175  )
        51           Si  tau(  51) = (   0.8714381   0.6338917   0.3723767  )
        52           Si  tau(  52) = (   0.4987560   0.5060902   0.0003236  )
        53           Si  tau(  53) = (   0.6216209   0.8866206   0.3729012  )
        54           Si  tau(  54) = (   0.7468493   0.7596116   0.0008321  )
        55           Si  tau(  55) = (   0.6231373   0.6326577   0.1245960  )
        56           Si  tau(  56) = (   0.7465697   0.5057797   0.2483884  )
        57           Si  tau(  57) = (   0.8708810   0.8859899   0.6201447  )
        58           Si  tau(  58) = (   0.4975739   0.7604899   0.7445863  )
        59           Si  tau(  59) = (   0.8721521   0.6337844   0.8679754  )
        60           Si  tau(  60) = (   0.4984755   0.5060608   0.4967143  )
        61           Si  tau(  61) = (   0.6216524   0.8861185   0.8692445  )
        62           Si  tau(  62) = (   0.7471819   0.7606513   0.4966160  )
        63           Si  tau(  63) = (   0.6234128   0.6324752   0.6204490  )
        64           Si  tau(  64) = (   0.7477527   0.5072705   0.7449898  )

     number of k points=     1
                       cart. coord. in units 2pi/alat
        k(    1) = (   0.0000000   0.0000000   0.0000000), wk =   2.0000000

     Dense  grid:    97269 G-vectors     FFT dimensions: (  72,  75,  72)

     Estimated max dynamical RAM per process >     283.14 MB

     Initial potential from superposition of free atoms

     starting charge     253.0416, renormalised to     256.0000
     Starting wfcs are random

     total cpu time spent up to now is        1.5 secs

     Self-consistent Calculation

     iteration #  1     ecut=    30.00 Ry     beta= 0.50
     Davidson diagonalization with overlap
     ethr =  1.00E-02,  avg # of iterations = 12.0

     Threshold (ethr) on eigenvalues was too large:
     Diagonalizing with lowered threshold

     Davidson diagonalization with overlap
     ethr =  6.27E-04,  avg # of iterations =  8.0

     total cpu time spent up to now is        1.9 secs

     total energy              =    -503.84789329 Ry
     estimated scf accuracy    <       1.85844108 Ry

     iteration #  2     ecut=    30.00 Ry     beta= 0.50
     Davidson diagonalization with overlap
     ethr =  7.26E-04,  avg # of iterations =  1.0

     total cpu time spent up to now is        2.0 secs

     total energy              =    -503.84485270 Ry
     estimated scf accuracy    <       0.34614699 Ry

     iteration #  3     ecut=    30.00 Ry     beta= 0.50
     Davidson diagonalization with overlap
     ethr =  1.35E-04,  avg # of iterations =  2.0

     total cpu time spent up to now is        2.1 secs

     total energy              =    -503.87663570 Ry
     estimated scf accuracy    <       0.00499234 Ry

     iteration #  4     ecut=    30.00 Ry     beta= 0.50
     Davidson diagonalization with overlap
     ethr =  1.95E-06,  avg # of iterations =  9.0

     total cpu time spent up to now is        2.3 secs

     total energy              =    -503.88455904 Ry
     estimated scf accuracy    <       0.00251004 Ry

     iteration #  5     ecut=    30.00 Ry     beta= 0.50
     Davidson diagonalization with overlap
     ethr =  9.80E-07,  avg # of iterations =  3.0

     total cpu time spent up to now is        2.4 secs

     total energy              =    -503.88513698 Ry
     estimated scf accuracy    <       0.00028029 Ry

     iteration #  6     ecut=    30.00 Ry     beta= 0.50
     Davidson diagonalization with overlap
     ethr =  1.09E-07,  avg # of iterations =  6.0

     total cpu time spent up to now is        2.6 secs

     total energy              =    -503.88514239 Ry
     estimated scf accuracy    <       0.00008338 Ry

     iteration #  7     ecut=    30.00 Ry     beta= 0.50
     Davidson diagonalization with overlap
     ethr =  3.26E-08,  avg # of iterations =  6.0

     total cpu time spent up to now is        2.7 secs

     total energy              =    -503.88516480 Ry
     estimated scf accuracy    <       0.00002492 Ry

     iteration #  8     ecut=    30.00 Ry     beta= 0.50
     Davidson diagonalization with overlap
     ethr =  9.73E-09,  avg # of iterations =  3.0

     total cpu time spent up to now is        2.9 secs

     total energy              =    -503.88516856 Ry
     estimated scf accuracy    <       0.00000177 Ry

     iteration #  9     ecut=    30.00 Ry     beta= 0.50
     Davidson diagonalization with overlap
     ethr =  6.93E-10,  avg # of iterations =  7.0

     total cpu time spent up to now is        3.1 secs

     total energy              =    -503.88516904 Ry
     estimated scf accuracy    <       0.00000300 Ry

     iteration # 10     ecut=    30.00 Ry     beta= 0.50
     Davidson diagonalization with overlap
     ethr =  6.93E-10,  avg # of iterations =  3.0

     total cpu time spent up to now is        3.2 secs

     End of self-consistent calculation

          k = 0.0000 0.0000 0.0000 ( 12137 PWs)   bands (ev):

    -5.7647  -4.7564  -4.7404  -4.7183  -4.6596  -4.6370  -4.6123  -3.8593
    -3.8434  -3.8162  -3.7742  -3.7582  -3.7506  -3.7247  -3.7121  -3.7043
    -3.6469  -3.6232  -3.6036  -3.5127  -3.4440  -3.4208  -3.2805  -1.7558
    -1.7278  -1.7042  -1.6717  -1.6216  -1.5995  -1.5664  -1.5450  -1.5261
    -1.5181  -1.5011  -1.4911  -1.4728  -1.4363  -1.4227  -1.4164  -1.4073
    -1.3553  -0.8757  -0.7978  -0.7681  -0.7014   0.6104   0.6278   0.6323
     0.6384   0.6533   0.6588   0.6798   0.6859   0.6939   0.7028   0.7158
     0.7255   2.2352   2.2412   2.2522   2.2551   2.2780   2.2866   2.2933
     2.2972   2.3098   2.3150   2.3264   2.3384   2.3819   2.3932   2.4110
     2.4359   2.4410   2.4465   2.4535   2.4641   2.4661   2.4771   2.4846
     2.5124   2.6056   2.6239   2.6494   2.6656   2.6684   2.6969   3.2687
     3.2750   3.3022   3.3089   3.3312   3.3649   4.1833   4.1884   4.1913
     4.2209   4.2241   4.2647   4.2731   4.2978   4.3155   4.3469   4.3487
     4.4083   4.6039   4.7327   4.7337   4.7741   4.7888   4.8022   4.8134
     4.8293   4.8459   4.8488   4.8589   4.8663   4.9082   4.9179   4.9419
     4.9523   4.9775   5.0203   5.0634   5.2636   6.0729   6.1214   6.2435

     highest occupied level (ev):     6.2435

!    total energy              =    -503.88516931 Ry
     estimated scf accuracy    <       0.00000017 Ry

     The total energy is the sum of the following terms:
     one-electron contribution =     148.05665319 Ry
     hartree contribution      =      36.78576479 Ry
     xc contribution           =    -154.05908976 Ry
     ewald contribution        =    -534.66849753 Ry

     convergence has been achieved in  10 iterations

     Forces acting on atoms (cartesian axes, Ry/au):

     atom    1 type  1   force =    -0.00086195   -0.00020779   -0.00603885
     atom    2 type  1   force =    -0.01292270   -0.00073306    0.00455299
     atom    3 type  1   force =    -0.00198580    0.00630033   -0.00137119
     atom    4 type  1   force =    -0.01450011    0.02788662   -0.03043452
     atom    5 type  1   force =     0.00125656    0.00555597    0.00020306
     atom    6 type  1   force =     0.00194891    0.00193591   -0.02650149
     atom    7 type  1   force =     0.00158180    0.00238321   -0.00855258
     atom    8 type  1   force =     0.00561078    0.02771161    0.00037885
     atom    9 type  1   force =    -0.00646877   -0.00353284   -0.00094682
     atom   10 type  1   force =    -0.01903977   -0.00089343    0.00637862
     atom   11 type  1   force =     0.00240797    0.00925453    0.03132464
     atom   12 type  1   force =    -0.01500115    0.02388243    0.00171471
     atom   13 type  1   force =    -0.00159661   -0.00121808    0.03396918
     atom   14 type  1   force =     0.00378300   -0.00043755    0.00238115
     atom   15 type  1   force =     0.00227756    0.00480656   -0.00425945
     atom   16 type  1   force =     0.00253824    0.02179222   -0.00290603
     atom   17 type  1   force =    -0.00316038   -0.03004831    0.00036779
     atom   18 type  1   force =    -0.00904977   -0.00123476    0.00516915
     atom   19 type  1   force =     0.00511402   -0.00152700    0.00335161
     atom   20 type  1   force =    -0.01137021    0.00353903   -0.03090349
     atom   21 type  1   force =    -0.00733137   -0.02785457   -0.00324229
     atom   22 type  1   force =     0.00293683   -0.00090613   -0.03364958
     atom   23 type  1   force =    -0.00021544   -0.00628409   -0.00470170
     atom   24 type  1   force =    -0.00671937   -0.00173900    0.00026224
     atom   25 type  1   force =    -0.00210394   -0.01991536   -0.00081867
     atom   26 type  1   force =    -0.01385527    0.00174845    0.00445850
     atom   27 type  1   force =     0.00131306    0.00510330    0.03684964
     atom   28 type  1   force =    -0.01119048   -0.00334125   -0.00426619
     atom   29 type  1   force =    -0.00347153   -0.03201224    0.03393999
     atom   30 type  1   force =     0.00119517   -0.00581142    0.00135038
     atom   31 type  1   force =     0.00204952   -0.00063448   -0.00015559
     atom   32 type  1   force =    -0.00041052   -0.00270333   -0.00329119
     atom   33 type  1   force =     0.00724343   -0.00312469   -0.01021886
     atom   34 type  1   force =    -0.00540159   -0.00346842   -0.00137798
     atom   35 type  1   force =     0.00893698    0.00822755    0.00397514
     atom   36 type  1   force =     0.00320397    0.02675141   -0.02821619
     atom   37 type  1   force =    -0.00191981    0.00294101    0.00535480
     atom   38 type  1   force =     0.00682147    0.00546809   -0.02653763
     atom   39 type  1   force =    -0.00313348    0.00276309   -0.00560537
     atom   40 type  1   force =     0.00181656    0.02028501    0.00072102
     atom   41 type  1   force =     0.00938216   -0.00114655   -0.00002985
     atom   42 type  1   force =     0.00058768   -0.00326212    0.00112824
     atom   43 type  1   force =     0.01499648    0.00398117    0.02747445
     atom   44 type  1   force =    -0.00277867    0.02225961    0.00057435
     atom   45 type  1   force =     0.00266303   -0.00104470    0.02879314
     atom   46 type  1   force =     0.00947555   -0.00154548   -0.00073026
     atom   47 type  1   force =    -0.00437175    0.00890205    0.00278688
     atom   48 type  1   force =     0.00308511    0.02253836    0.00758908
     atom   49 type  1   force =     0.01104291   -0.02387046   -0.00347793
     atom   50 type  1   force =    -0.00237440   -0.00206747   -0.00394647
     atom   51 type  1   force =     0.01002774   -0.00275941   -0.00124735
     atom   52 type  1   force =    -0.00352657    0.00143789   -0.02955760
     atom   53 type  1   force =     0.00431048   -0.02454541   -0.00163401
     atom   54 type  1   force =     0.00250058   -0.00313836   -0.03401152
     atom   55 type  1   force =    -0.00296721    0.00032065   -0.00278089
     atom   56 type  1   force =     0.00651401    0.00412339    0.00152843
     atom   57 type  1   force =     0.01805586   -0.02243471    0.00182790
     atom   58 type  1   force =     0.00383934   -0.01084975    0.00203629
     atom   59 type  1   force =     0.01158262   -0.00069868    0.03521073
     atom   60 type  1   force =    -0.00020406    0.00261998   -0.00438474
     atom   61 type  1   force =     0.00310612   -0.02377307    0.02857355
     atom   62 type  1   force =    -0.00239863   -0.00737560   -0.00239147
     atom   63 type  1   force =    -0.00336902    0.00585914    0.00168269
     atom   64 type  1   force =     0.00049480   -0.00423902    0.00227852

     Total force =     0.174368     Total SCF correction =     0.000784


     Computing stress (Cartesian axis) and pressure

          total   stress  (Ry/bohr**3)                   (kbar)     P=       18.89
   0.00014687   0.00002974  -0.00002431           21.60        4.38       -3.58
   0.00002974   0.00011194   0.00001046            4.38       16.47        1.54
  -0.00002431   0.00001046   0.00012636           -3.58        1.54       18.59

 
     init_run     :      0.97s CPU      1.45s WALL (       1 calls)
     electrons    :      1.62s CPU      1.70s WALL (       1 calls)
     forces       :      0.06s CPU      0.06s WALL (       1 calls)
     stress       :      0.23s CPU      0.25s WALL (       1 calls)

     Called by init_run:
     wfcinit      :      0.56s CPU      0.89s WALL (       1 calls)
                                        0.89s GPU  (       1 calls)
     potinit      :      0.27s CPU      0.34s WALL (       1 calls)
     hinit0       :      0.11s CPU      0.12s WALL (       1 calls)

     Called by electrons:
     c_bands      :      1.03s CPU      1.05s WALL (      11 calls)
     sum_band     :      0.22s CPU      0.24s WALL (      11 calls)
     v_of_rho     :      0.21s CPU      0.29s WALL (      11 calls)
     mix_rho      :      0.21s CPU      0.23s WALL (      11 calls)

     Called by c_bands:
     init_us_2    :      0.04s CPU      0.04s WALL (      23 calls)
     init_us_2:gp :      0.04s CPU      0.04s WALL (      23 calls)
     regterg      :      0.91s CPU      0.94s WALL (      11 calls)

     Called by *egterg:
     rdiaghg      :      0.34s CPU      0.40s WALL (      70 calls)
                                        0.39s GPU  (      70 calls)
     h_psi        :      0.96s CPU      1.25s WALL (      72 calls)
                                        1.24s GPU  (      72 calls)
     g_psi        :      0.00s CPU      0.00s WALL (      60 calls)
                                        0.00s GPU  (      60 calls)

     Called by h_psi:
     h_psi:calbec :      0.44s CPU      0.74s WALL (      72 calls)
                                        0.74s GPU  (      72 calls)
     vloc_psi     :      0.42s CPU      0.44s WALL (      72 calls)
                                        0.43s GPU  (      72 calls)
     add_vuspsi   :      0.03s CPU      0.07s WALL (      72 calls)
                                        0.06s GPU  (      72 calls)

     General routines
     calbec       :      0.44s CPU      0.71s WALL (      77 calls)
     fft          :      0.21s CPU      0.24s WALL (      95 calls)
                                        0.10s GPU  (      59 calls)
     ffts         :      0.04s CPU      0.04s WALL (      11 calls)
     fftw         :      0.04s CPU      0.48s WALL (    1066 calls)
                                        0.39s GPU  (    1066 calls)
 
     Parallel routines
 
     PWSCF        :      2.92s CPU      3.52s WALL

 
   This run was terminated on:  21:47:18   8Jul2023            

=------------------------------------------------------------------------------=
   JOB DONE.
=------------------------------------------------------------------------------=
