
     Program PWSCF v.7.0 starts on  8Jul2023 at 21:49:44 

     This program is part of the open-source Quantum ESPRESSO suite
     for quantum simulation of materials; please cite
         "P. Giannozzi et al., J. Phys.:Condens. Matter 21 395502 (2009);
         "P. Giannozzi et al., J. Phys.:Condens. Matter 29 465901 (2017);
         "P. Giannozzi et al., J. Chem. Phys. 152 154105 (2020);
          URL http://www.quantum-espresso.org", 
     in publications or presentations arising from this work. More details at
     http://www.quantum-espresso.org/quote

     Parallel version (MPI & OpenMP), running on       1 processor cores
     Number of MPI processes:                 1
     Threads/MPI process:                     1

     MPI processes distributed on     1 nodes
     109276 MiB available memory on the printing compute node when the environment starts
 
     Reading input from pw-si-38.in
Warning: card &CELL ignored
Warning: card / ignored

     Current dimensions of program PWSCF are:
     Max number of different atomic species (ntypx) = 10
     Max number of k-points (npk) =  40000
     Max angular momentum in pseudopotentials (lmaxx) =  4

     IMPORTANT: XC functional enforced from input :
     Exchange-correlation= PBE
                           (   1   4   3   4   0   0   0)
     Any further DFT definition will be discarded
     Please, verify this is what you really want


     gamma-point specific algorithms are used

     Subspace diagonalization in iterative solution of the eigenvalue problem:
     a serial algorithm will be used

 
     G-vector sticks info
     --------------------
     sticks:   dense  smooth     PW     G-vecs:    dense   smooth      PW
     Sum        4033    4033   1001               194701   194701   24281
 
     Using Slab Decomposition
 


     bravais-lattice index     =            0
     lattice parameter (alat)  =      20.6196  a.u.
     unit-cell volume          =    8773.2794 (a.u.)^3
     number of atoms/cell      =           64
     number of atomic types    =            1
     number of electrons       =       256.00
     number of Kohn-Sham states=          128
     kinetic-energy cutoff     =      30.0000  Ry
     charge density cutoff     =     120.0000  Ry
     scf convergence threshold =      1.0E-06
     mixing beta               =       0.5000
     number of iterations used =            8  plain     mixing
     Exchange-correlation= PBE
                           (   1   4   3   4   0   0   0)

     GPU acceleration is ACTIVE.


     celldm(1)=  20.619557  celldm(2)=   0.000000  celldm(3)=   0.000000
     celldm(4)=   0.000000  celldm(5)=   0.000000  celldm(6)=   0.000000

     crystal axes: (cart. coord. in units of alat)
               a(1) = (   1.000000   0.000000   0.000000 )  
               a(2) = (   0.000000   0.993944   0.000000 )  
               a(3) = (   0.000000   0.000000   1.006844 )  

     reciprocal axes: (cart. coord. in units 2 pi/alat)
               b(1) = (  1.000000  0.000000  0.000000 )  
               b(2) = (  0.000000  1.006093  0.000000 )  
               b(3) = (  0.000000  0.000000  0.993203 )  


     PseudoPot. # 1 for Si read from file:
     ./Si_ONCV_PBE-1.0.upf
     MD5 check sum: 2de5a83d12544a9ea852f39b88f19b1f
     Pseudo is Norm-conserving, Zval =  4.0
     Generated using ONCVPSP code by D. R. Hamann
     Using radial grid of  602 points,  4 beta functions with: 
                l(1) =   0
                l(2) =   0
                l(3) =   1
                l(4) =   1

     atomic species   valence    mass     pseudopotential
        Si             4.00    28.08500     Si( 1.00)

     No symmetry found



   Cartesian axes

     site n.     atom                  positions (alat units)
         1           Si  tau(   1) = (   0.3749285   0.3753424   0.1248276  )
         2           Si  tau(   2) = (  -0.0007848   0.2509091   0.2514558  )
         3           Si  tau(   3) = (   0.3751651   0.1256429   0.3762238  )
         4           Si  tau(   4) = (   0.0006132  -0.0000753  -0.0008398  )
         5           Si  tau(   5) = (   0.1252010   0.3761053   0.3758337  )
         6           Si  tau(   6) = (   0.2495652   0.2508542  -0.0002167  )
         7           Si  tau(   7) = (   0.1259669   0.1258249   0.1246595  )
         8           Si  tau(   8) = (   0.2497169  -0.0008428   0.2514978  )
         9           Si  tau(   9) = (   0.3760883   0.3747148   0.6276615  )
        10           Si  tau(  10) = (   0.0001246   0.2495661   0.7526601  )
        11           Si  tau(  11) = (   0.3752916   0.1246835   0.8780696  )
        12           Si  tau(  12) = (   0.0005892   0.0007922   0.5011402  )
        13           Si  tau(  13) = (   0.1256183   0.3750208   0.8785789  )
        14           Si  tau(  14) = (   0.2510466   0.2494706   0.5024388  )
        15           Si  tau(  15) = (   0.1252748   0.1257824   0.6266777  )
        16           Si  tau(  16) = (   0.2500879   0.0003282   0.7534786  )
        17           Si  tau(  17) = (   0.3758435   0.8765504   0.1261657  )
        18           Si  tau(  18) = (   0.0006275   0.7499143   0.2517592  )
        19           Si  tau(  19) = (   0.3747690   0.6262078   0.3774010  )
        20           Si  tau(  20) = (   0.0001635   0.5001468   0.0007460  )
        21           Si  tau(  21) = (   0.1249309   0.8766162   0.3773742  )
        22           Si  tau(  22) = (   0.2510329   0.7498960  -0.0002453  )
        23           Si  tau(  23) = (   0.1257241   0.6258375   0.1262736  )
        24           Si  tau(  24) = (   0.2504898   0.5003560   0.2518137  )
        25           Si  tau(  25) = (   0.3757152   0.8753278   0.6268464  )
        26           Si  tau(  26) = (  -0.0002792   0.7509780   0.7526624  )
        27           Si  tau(  27) = (   0.3749393   0.6259280   0.8783512  )
        28           Si  tau(  28) = (  -0.0006113   0.5007566   0.5018852  )
        29           Si  tau(  29) = (   0.1245815   0.8750738   0.8782314  )
        30           Si  tau(  30) = (   0.2509209   0.7497431   0.5016835  )
        31           Si  tau(  31) = (   0.1255090   0.6260714   0.6271735  )
        32           Si  tau(  32) = (   0.2512587   0.5013021   0.7531701  )
        33           Si  tau(  33) = (   0.8763899   0.3756992   0.1248401  )
        34           Si  tau(  34) = (   0.5010109   0.2509685   0.2515280  )
        35           Si  tau(  35) = (   0.8772138   0.1247774   0.3759204  )
        36           Si  tau(  36) = (   0.4999063  -0.0005424   0.0003123  )
        37           Si  tau(  37) = (   0.6256631   0.3751016   0.3772454  )
        38           Si  tau(  38) = (   0.7516067   0.2506608  -0.0001044  )
        39           Si  tau(  39) = (   0.6251062   0.1245033   0.1254438  )
        40           Si  tau(  40) = (   0.7506135  -0.0003339   0.2507541  )
        41           Si  tau(  41) = (   0.8756106   0.3762098   0.6272364  )
        42           Si  tau(  42) = (   0.4999004   0.2505967   0.7531887  )
        43           Si  tau(  43) = (   0.8764605   0.1256935   0.8793995  )
        44           Si  tau(  44) = (   0.5012667   0.0005428   0.5013866  )
        45           Si  tau(  45) = (   0.6262817   0.3746892   0.8791937  )
        46           Si  tau(  46) = (   0.7509457   0.2499334   0.5025250  )
        47           Si  tau(  47) = (   0.6266811   0.1247845   0.6279169  )
        48           Si  tau(  48) = (   0.7505581   0.0004587   0.7523690  )
        49           Si  tau(  49) = (   0.8764951   0.8758911   0.1257935  )
        50           Si  tau(  50) = (   0.5012556   0.7511432   0.2514037  )
        51           Si  tau(  51) = (   0.8758663   0.6259354   0.3769176  )
        52           Si  tau(  52) = (   0.5015725   0.5010830  -0.0004049  )
        53           Si  tau(  53) = (   0.6253319   0.8753141   0.3767731  )
        54           Si  tau(  54) = (   0.7502727   0.7507922  -0.0006024  )
        55           Si  tau(  55) = (   0.6250612   0.6262578   0.1246746  )
        56           Si  tau(  56) = (   0.7504958   0.5009204   0.2502412  )
        57           Si  tau(  57) = (   0.8766565   0.8754499   0.6269485  )
        58           Si  tau(  58) = (   0.5010750   0.7504457   0.7528322  )
        59           Si  tau(  59) = (   0.8759340   0.6253652   0.8789874  )
        60           Si  tau(  60) = (   0.5005868   0.5000803   0.5012960  )
        61           Si  tau(  61) = (   0.6267048   0.8757112   0.8784525  )
        62           Si  tau(  62) = (   0.7507163   0.7511689   0.5022367  )
        63           Si  tau(  63) = (   0.6263845   0.6254110   0.6269153  )
        64           Si  tau(  64) = (   0.7504567   0.5008532   0.7521159  )

     number of k points=     1
                       cart. coord. in units 2pi/alat
        k(    1) = (   0.0000000   0.0000000   0.0000000), wk =   2.0000000

     Dense  grid:    97351 G-vectors     FFT dimensions: (  72,  72,  75)

     Estimated max dynamical RAM per process >     283.39 MB

     Initial potential from superposition of free atoms

     starting charge     253.0416, renormalised to     256.0000
     Starting wfcs are random

     total cpu time spent up to now is        1.4 secs

     Self-consistent Calculation

     iteration #  1     ecut=    30.00 Ry     beta= 0.50
     Davidson diagonalization with overlap
     ethr =  1.00E-02,  avg # of iterations = 13.0

     Threshold (ethr) on eigenvalues was too large:
     Diagonalizing with lowered threshold

     Davidson diagonalization with overlap
     ethr =  6.41E-04,  avg # of iterations =  9.0

     total cpu time spent up to now is        1.8 secs

     total energy              =    -503.86949984 Ry
     estimated scf accuracy    <       1.85421847 Ry

     iteration #  2     ecut=    30.00 Ry     beta= 0.50
     Davidson diagonalization with overlap
     ethr =  7.24E-04,  avg # of iterations =  1.0

     total cpu time spent up to now is        1.9 secs

     total energy              =    -503.86916492 Ry
     estimated scf accuracy    <       0.34587590 Ry

     iteration #  3     ecut=    30.00 Ry     beta= 0.50
     Davidson diagonalization with overlap
     ethr =  1.35E-04,  avg # of iterations =  4.0

     total cpu time spent up to now is        2.0 secs

     total energy              =    -503.90485427 Ry
     estimated scf accuracy    <       0.00491962 Ry

     iteration #  4     ecut=    30.00 Ry     beta= 0.50
     Davidson diagonalization with overlap
     ethr =  1.92E-06,  avg # of iterations =  9.0

     total cpu time spent up to now is        2.2 secs

     total energy              =    -503.91283343 Ry
     estimated scf accuracy    <       0.00136261 Ry

     iteration #  5     ecut=    30.00 Ry     beta= 0.50
     Davidson diagonalization with overlap
     ethr =  5.32E-07,  avg # of iterations =  3.0

     total cpu time spent up to now is        2.4 secs

     total energy              =    -503.91317733 Ry
     estimated scf accuracy    <       0.00031183 Ry

     iteration #  6     ecut=    30.00 Ry     beta= 0.50
     Davidson diagonalization with overlap
     ethr =  1.22E-07,  avg # of iterations =  2.0

     total cpu time spent up to now is        2.5 secs

     total energy              =    -503.91319015 Ry
     estimated scf accuracy    <       0.00005781 Ry

     iteration #  7     ecut=    30.00 Ry     beta= 0.50
     Davidson diagonalization with overlap
     ethr =  2.26E-08,  avg # of iterations =  6.0

     total cpu time spent up to now is        2.7 secs

     total energy              =    -503.91320979 Ry
     estimated scf accuracy    <       0.00003732 Ry

     iteration #  8     ecut=    30.00 Ry     beta= 0.50
     Davidson diagonalization with overlap
     ethr =  1.46E-08,  avg # of iterations =  3.0

     total cpu time spent up to now is        2.8 secs

     total energy              =    -503.91321135 Ry
     estimated scf accuracy    <       0.00000536 Ry

     iteration #  9     ecut=    30.00 Ry     beta= 0.50
     Davidson diagonalization with overlap
     ethr =  2.10E-09,  avg # of iterations =  5.0

     total cpu time spent up to now is        3.0 secs

     total energy              =    -503.91321389 Ry
     estimated scf accuracy    <       0.00000611 Ry

     iteration # 10     ecut=    30.00 Ry     beta= 0.50
     Davidson diagonalization with overlap
     ethr =  2.10E-09,  avg # of iterations =  2.0

     total cpu time spent up to now is        3.1 secs

     total energy              =    -503.91321324 Ry
     estimated scf accuracy    <       0.00000228 Ry

     iteration # 11     ecut=    30.00 Ry     beta= 0.50
     Davidson diagonalization with overlap
     ethr =  8.92E-10,  avg # of iterations =  3.0

     total cpu time spent up to now is        3.2 secs

     End of self-consistent calculation

          k = 0.0000 0.0000 0.0000 ( 12141 PWs)   bands (ev):

    -5.7530  -4.7067  -4.7058  -4.6892  -4.6844  -4.6779  -4.6259  -3.8130
    -3.7799  -3.7672  -3.7581  -3.7469  -3.7392  -3.7320  -3.7089  -3.6988
    -3.6835  -3.6792  -3.6764  -3.4743  -3.4389  -3.4284  -3.4052  -1.7422
    -1.7280  -1.6562  -1.6529  -1.6338  -1.5877  -1.5326  -1.5184  -1.5116
    -1.5048  -1.5001  -1.4920  -1.4854  -1.4735  -1.4664  -1.4605  -1.4513
    -1.4388  -0.8277  -0.7979  -0.7916  -0.7342   0.6219   0.6267   0.6411
     0.6454   0.6494   0.6575   0.6619   0.6701   0.6760   0.6829   0.7134
     0.7278   2.2467   2.2563   2.2743   2.2814   2.3026   2.3067   2.3136
     2.3223   2.3246   2.3276   2.3391   2.3436   2.4027   2.4041   2.4047
     2.4145   2.4241   2.4361   2.4382   2.4426   2.4516   2.4588   2.4660
     2.4844   2.5676   2.5760   2.6120   2.6183   2.6387   2.6633   3.2292
     3.2730   3.3033   3.3098   3.3549   3.3664   4.1460   4.2126   4.2382
     4.2455   4.2593   4.2706   4.2760   4.2813   4.2881   4.2910   4.3073
     4.3253   4.5715   4.7749   4.7879   4.7935   4.7943   4.8033   4.8254
     4.8334   4.8415   4.8496   4.8767   4.8830   4.9018   4.9139   4.9250
     4.9292   4.9773   4.9905   5.0090   5.0556   6.0592   6.1580   6.1812

     highest occupied level (ev):     6.1812

!    total energy              =    -503.91321344 Ry
     estimated scf accuracy    <       0.00000082 Ry

     The total energy is the sum of the following terms:
     one-electron contribution =     148.28807276 Ry
     hartree contribution      =      36.59498339 Ry
     xc contribution           =    -154.02486083 Ry
     ewald contribution        =    -534.77140876 Ry

     convergence has been achieved in  11 iterations

     Forces acting on atoms (cartesian axes, Ry/au):

     atom    1 type  1   force =     0.00531597    0.00324768    0.00191309
     atom    2 type  1   force =     0.01064083   -0.00123535   -0.00652639
     atom    3 type  1   force =     0.00274161   -0.00163087   -0.00106447
     atom    4 type  1   force =     0.00324930    0.02308218   -0.00390320
     atom    5 type  1   force =     0.00015617   -0.00492520    0.00776779
     atom    6 type  1   force =     0.00683521   -0.00286164   -0.01117447
     atom    7 type  1   force =    -0.00582872   -0.00101289    0.00537395
     atom    8 type  1   force =     0.00172837    0.03059175   -0.00310492
     atom    9 type  1   force =    -0.00273895    0.00560501   -0.00104098
     atom   10 type  1   force =     0.00251249    0.00701998    0.00097456
     atom   11 type  1   force =    -0.00102106    0.00531402    0.01339942
     atom   12 type  1   force =     0.00107680    0.02120102    0.00659832
     atom   13 type  1   force =    -0.00269230    0.00442540    0.00507053
     atom   14 type  1   force =    -0.00397531    0.00841128   -0.00438588
     atom   15 type  1   force =     0.00096453   -0.00233790    0.00468546
     atom   16 type  1   force =    -0.00055510    0.01788281   -0.00550410
     atom   17 type  1   force =    -0.00360280   -0.02989770   -0.00155321
     atom   18 type  1   force =     0.00170791    0.00425549   -0.00107019
     atom   19 type  1   force =     0.00703098   -0.00536164   -0.00737786
     atom   20 type  1   force =     0.00743931    0.00326729   -0.01294498
     atom   21 type  1   force =     0.00319163   -0.03209815   -0.00275436
     atom   22 type  1   force =    -0.00294522    0.00421173   -0.00491308
     atom   23 type  1   force =     0.00045639   -0.00376241   -0.00301286
     atom   24 type  1   force =     0.00193569    0.00199017   -0.00489817
     atom   25 type  1   force =     0.00038984   -0.01846767    0.00307436
     atom   26 type  1   force =     0.00445472   -0.00644889    0.00230992
     atom   27 type  1   force =     0.00820117   -0.00169019    0.00881814
     atom   28 type  1   force =     0.00817779   -0.00007845    0.00020443
     atom   29 type  1   force =     0.00475433   -0.02133798    0.00970714
     atom   30 type  1   force =    -0.00524664    0.00684251    0.00319526
     atom   31 type  1   force =    -0.00185235   -0.00391619    0.00189291
     atom   32 type  1   force =    -0.00487427   -0.00575788   -0.00170615
     atom   33 type  1   force =    -0.00745166    0.00001475    0.00438876
     atom   34 type  1   force =    -0.00362116   -0.00187327   -0.00478431
     atom   35 type  1   force =    -0.01341117    0.00443678    0.00140661
     atom   36 type  1   force =     0.00524838    0.02453946   -0.01466562
     atom   37 type  1   force =     0.00397898    0.00193977   -0.00465122
     atom   38 type  1   force =    -0.00372032   -0.00383531   -0.00471754
     atom   39 type  1   force =     0.00277596    0.00698209   -0.00128783
     atom   40 type  1   force =     0.00080452    0.02291468    0.00174259
     atom   41 type  1   force =    -0.00119051   -0.00483107    0.00242814
     atom   42 type  1   force =     0.00706634   -0.00433957    0.00213101
     atom   43 type  1   force =    -0.00587897   -0.00208472    0.00225881
     atom   44 type  1   force =    -0.00416825    0.02247880    0.00326198
     atom   45 type  1   force =    -0.00127318    0.00433803    0.00317578
     atom   46 type  1   force =     0.00349614   -0.00004889   -0.00305592
     atom   47 type  1   force =    -0.00786147    0.00649958   -0.00144134
     atom   48 type  1   force =     0.00828713    0.02037612    0.00582107
     atom   49 type  1   force =    -0.00364015   -0.02587028   -0.00317469
     atom   50 type  1   force =    -0.00590122   -0.00518680   -0.00113665
     atom   51 type  1   force =    -0.00636967   -0.00200835   -0.00277072
     atom   52 type  1   force =    -0.00739551   -0.00387327   -0.00902609
     atom   53 type  1   force =     0.00482354   -0.01901646   -0.00112359
     atom   54 type  1   force =     0.00602021   -0.00091796   -0.00469952
     atom   55 type  1   force =     0.00279414   -0.00089338    0.00299698
     atom   56 type  1   force =    -0.00005210   -0.00115095    0.00241553
     atom   57 type  1   force =    -0.00630195   -0.01631129    0.00091009
     atom   58 type  1   force =    -0.00042543   -0.00093826    0.00073277
     atom   59 type  1   force =    -0.00365404   -0.00118407    0.00572085
     atom   60 type  1   force =    -0.00051108    0.00216716    0.00454403
     atom   61 type  1   force =    -0.00732897   -0.02039007    0.00820653
     atom   62 type  1   force =     0.00135989   -0.00364635   -0.00149191
     atom   63 type  1   force =    -0.00553066   -0.00002497    0.00016304
     atom   64 type  1   force =     0.00140387   -0.00278926    0.00767237

     Total force =     0.113429     Total SCF correction =     0.001869


     Computing stress (Cartesian axis) and pressure

          total   stress  (Ry/bohr**3)                   (kbar)     P=       17.32
   0.00012175   0.00000849  -0.00002689           17.91        1.25       -3.96
   0.00000849   0.00015415  -0.00000580            1.25       22.68       -0.85
  -0.00002689  -0.00000580   0.00007733           -3.96       -0.85       11.38

 
     init_run     :      0.97s CPU      1.38s WALL (       1 calls)
     electrons    :      1.71s CPU      1.79s WALL (       1 calls)
     forces       :      0.06s CPU      0.07s WALL (       1 calls)
     stress       :      0.23s CPU      0.24s WALL (       1 calls)

     Called by init_run:
     wfcinit      :      0.58s CPU      0.88s WALL (       1 calls)
                                        0.88s GPU  (       1 calls)
     potinit      :      0.25s CPU      0.29s WALL (       1 calls)
     hinit0       :      0.11s CPU      0.12s WALL (       1 calls)

     Called by electrons:
     c_bands      :      1.05s CPU      1.07s WALL (      12 calls)
     sum_band     :      0.24s CPU      0.26s WALL (      12 calls)
     v_of_rho     :      0.19s CPU      0.24s WALL (      12 calls)
     mix_rho      :      0.24s CPU      0.26s WALL (      12 calls)

     Called by c_bands:
     init_us_2    :      0.03s CPU      0.04s WALL (      25 calls)
     init_us_2:gp :      0.03s CPU      0.04s WALL (      25 calls)
     regterg      :      0.94s CPU      0.96s WALL (      12 calls)

     Called by *egterg:
     rdiaghg      :      0.33s CPU      0.40s WALL (      71 calls)
                                        0.39s GPU  (      71 calls)
     h_psi        :      1.02s CPU      1.26s WALL (      73 calls)
                                        1.26s GPU  (      73 calls)
     g_psi        :      0.00s CPU      0.00s WALL (      60 calls)
                                        0.00s GPU  (      60 calls)

     Called by h_psi:
     h_psi:calbec :      0.47s CPU      0.73s WALL (      73 calls)
                                        0.73s GPU  (      73 calls)
     vloc_psi     :      0.44s CPU      0.46s WALL (      73 calls)
                                        0.46s GPU  (      73 calls)
     add_vuspsi   :      0.03s CPU      0.06s WALL (      73 calls)
                                        0.06s GPU  (      73 calls)

     General routines
     calbec       :      0.47s CPU      0.70s WALL (      78 calls)
     fft          :      0.18s CPU      0.19s WALL (     103 calls)
                                        0.03s GPU  (      64 calls)
     ffts         :      0.05s CPU      0.05s WALL (      12 calls)
     fftw         :      0.03s CPU      0.51s WALL (    1144 calls)
                                        0.41s GPU  (    1144 calls)
 
     Parallel routines
 
     PWSCF        :      3.01s CPU      3.53s WALL

 
   This run was terminated on:  21:49:47   8Jul2023            

=------------------------------------------------------------------------------=
   JOB DONE.
=------------------------------------------------------------------------------=
