
     Program PWSCF v.7.0 starts on  8Jul2023 at 21:48:45 

     This program is part of the open-source Quantum ESPRESSO suite
     for quantum simulation of materials; please cite
         "P. Giannozzi et al., J. Phys.:Condens. Matter 21 395502 (2009);
         "P. Giannozzi et al., J. Phys.:Condens. Matter 29 465901 (2017);
         "P. Giannozzi et al., J. Chem. Phys. 152 154105 (2020);
          URL http://www.quantum-espresso.org", 
     in publications or presentations arising from this work. More details at
     http://www.quantum-espresso.org/quote

     Parallel version (MPI & OpenMP), running on       1 processor cores
     Number of MPI processes:                 1
     Threads/MPI process:                     1

     MPI processes distributed on     1 nodes
     109280 MiB available memory on the printing compute node when the environment starts
 
     Reading input from pw-si-25.in
Warning: card &CELL ignored
Warning: card / ignored

     Current dimensions of program PWSCF are:
     Max number of different atomic species (ntypx) = 10
     Max number of k-points (npk) =  40000
     Max angular momentum in pseudopotentials (lmaxx) =  4

     IMPORTANT: XC functional enforced from input :
     Exchange-correlation= PBE
                           (   1   4   3   4   0   0   0)
     Any further DFT definition will be discarded
     Please, verify this is what you really want


     gamma-point specific algorithms are used

     Subspace diagonalization in iterative solution of the eigenvalue problem:
     a serial algorithm will be used

 
     G-vector sticks info
     --------------------
     sticks:   dense  smooth     PW     G-vecs:    dense   smooth      PW
     Sum        4117    4117   1033               197925   197925   24773
 
     Using Slab Decomposition
 


     bravais-lattice index     =            0
     lattice parameter (alat)  =      20.6698  a.u.
     unit-cell volume          =    8916.4753 (a.u.)^3
     number of atoms/cell      =           64
     number of atomic types    =            1
     number of electrons       =       256.00
     number of Kohn-Sham states=          128
     kinetic-energy cutoff     =      30.0000  Ry
     charge density cutoff     =     120.0000  Ry
     scf convergence threshold =      1.0E-06
     mixing beta               =       0.5000
     number of iterations used =            8  plain     mixing
     Exchange-correlation= PBE
                           (   1   4   3   4   0   0   0)

     GPU acceleration is ACTIVE.


     celldm(1)=  20.669811  celldm(2)=   0.000000  celldm(3)=   0.000000
     celldm(4)=   0.000000  celldm(5)=   0.000000  celldm(6)=   0.000000

     crystal axes: (cart. coord. in units of alat)
               a(1) = (   1.000000   0.000000   0.000000 )  
               a(2) = (   0.000000   1.008049   0.000000 )  
               a(3) = (   0.000000   0.000000   1.001618 )  

     reciprocal axes: (cart. coord. in units 2 pi/alat)
               b(1) = (  1.000000  0.000000  0.000000 )  
               b(2) = (  0.000000  0.992016  0.000000 )  
               b(3) = (  0.000000  0.000000  0.998384 )  


     PseudoPot. # 1 for Si read from file:
     ./Si_ONCV_PBE-1.0.upf
     MD5 check sum: 2de5a83d12544a9ea852f39b88f19b1f
     Pseudo is Norm-conserving, Zval =  4.0
     Generated using ONCVPSP code by D. R. Hamann
     Using radial grid of  602 points,  4 beta functions with: 
                l(1) =   0
                l(2) =   0
                l(3) =   1
                l(4) =   1

     atomic species   valence    mass     pseudopotential
        Si             4.00    28.08500     Si( 1.00)

     No symmetry found



   Cartesian axes

     site n.     atom                  positions (alat units)
         1           Si  tau(   1) = (   0.3786475   0.3753375   0.1258924  )
         2           Si  tau(   2) = (   0.0004071   0.2501322   0.2504242  )
         3           Si  tau(   3) = (   0.3784106   0.1254577   0.3770825  )
         4           Si  tau(   4) = (   0.0006863  -0.0007068  -0.0004323  )
         5           Si  tau(   5) = (   0.1257927   0.3757301   0.3774367  )
         6           Si  tau(   6) = (   0.2523966   0.2500754  -0.0008626  )
         7           Si  tau(   7) = (   0.1261640   0.1242321   0.1258872  )
         8           Si  tau(   8) = (   0.2515207  -0.0001496   0.2516229  )
         9           Si  tau(   9) = (   0.3785129   0.3758094   0.6270205  )
        10           Si  tau(  10) = (  -0.0001158   0.2496276   0.7522559  )
        11           Si  tau(  11) = (   0.3789552   0.1257172   0.8789253  )
        12           Si  tau(  12) = (  -0.0002015  -0.0003156   0.5014228  )
        13           Si  tau(  13) = (   0.1259659   0.3756152   0.8778644  )
        14           Si  tau(  14) = (   0.2517671   0.2494471   0.5017101  )
        15           Si  tau(  15) = (   0.1267621   0.1242834   0.6275302  )
        16           Si  tau(  16) = (   0.2513530  -0.0003488   0.7531105  )
        17           Si  tau(  17) = (   0.3775099   0.8746010   0.1249109  )
        18           Si  tau(  18) = (   0.0003732   0.7496010   0.2517826  )
        19           Si  tau(  19) = (   0.3779216   0.6256661   0.3768524  )
        20           Si  tau(  20) = (   0.0002078   0.5004092   0.0009001  )
        21           Si  tau(  21) = (   0.1257178   0.8755993   0.3758205  )
        22           Si  tau(  22) = (   0.2523927   0.7511818  -0.0000607  )
        23           Si  tau(  23) = (   0.1257745   0.6250265   0.1250160  )
        24           Si  tau(  24) = (   0.2520010   0.5002053   0.2514640  )
        25           Si  tau(  25) = (   0.3776143   0.8753028   0.6275576  )
        26           Si  tau(  26) = (  -0.0001374   0.7503364   0.7523595  )
        27           Si  tau(  27) = (   0.3775081   0.6252790   0.8784125  )
        28           Si  tau(  28) = (  -0.0005030   0.4994256   0.5028041  )
        29           Si  tau(  29) = (   0.1264927   0.8757970   0.8784529  )
        30           Si  tau(  30) = (   0.2514448   0.7500362   0.5021797  )
        31           Si  tau(  31) = (   0.1256445   0.6260484   0.6275323  )
        32           Si  tau(  32) = (   0.2524763   0.4994872   0.7535871  )
        33           Si  tau(  33) = (   0.8832159   0.3754305   0.1255027  )
        34           Si  tau(  34) = (   0.5050691   0.2494131   0.2503090  )
        35           Si  tau(  35) = (   0.8835257   0.1249711   0.3759193  )
        36           Si  tau(  36) = (   0.5051114  -0.0005103   0.0008291  )
        37           Si  tau(  37) = (   0.6308968   0.3746803   0.3769630  )
        38           Si  tau(  38) = (   0.7562389   0.2502212   0.0007730  )
        39           Si  tau(  39) = (   0.6314063   0.1256059   0.1254294  )
        40           Si  tau(  40) = (   0.7573025  -0.0004369   0.2505846  )
        41           Si  tau(  41) = (   0.8826931   0.3755915   0.6272720  )
        42           Si  tau(  42) = (   0.5051921   0.2505841   0.7531723  )
        43           Si  tau(  43) = (   0.8830581   0.1253685   0.8786503  )
        44           Si  tau(  44) = (   0.5041679   0.0007643   0.5029400  )
        45           Si  tau(  45) = (   0.6303967   0.3751857   0.8789035  )
        46           Si  tau(  46) = (   0.7563809   0.2506960   0.5023735  )
        47           Si  tau(  47) = (   0.6305426   0.1247209   0.6268555  )
        48           Si  tau(  48) = (   0.7572460  -0.0005928   0.7532936  )
        49           Si  tau(  49) = (   0.8819329   0.8752795   0.1264314  )
        50           Si  tau(  50) = (   0.5041094   0.7496968   0.2502905  )
        51           Si  tau(  51) = (   0.8822060   0.6260647   0.3764047  )
        52           Si  tau(  52) = (   0.5049178   0.5006964   0.0002030  )
        53           Si  tau(  53) = (   0.6308644   0.8750250   0.3761591  )
        54           Si  tau(  54) = (   0.7564492   0.7508354  -0.0007913  )
        55           Si  tau(  55) = (   0.6312131   0.6261672   0.1255520  )
        56           Si  tau(  56) = (   0.7562393   0.5009177   0.2514530  )
        57           Si  tau(  57) = (   0.8818782   0.8756841   0.6276880  )
        58           Si  tau(  58) = (   0.5048972   0.7496745   0.7538069  )
        59           Si  tau(  59) = (   0.8820154   0.6262028   0.8792258  )
        60           Si  tau(  60) = (   0.5036518   0.4994070   0.5021175  )
        61           Si  tau(  61) = (   0.6304044   0.8747593   0.8785710  )
        62           Si  tau(  62) = (   0.7566374   0.7501561   0.5014334  )
        63           Si  tau(  63) = (   0.6305926   0.6257864   0.6281919  )
        64           Si  tau(  64) = (   0.7558531   0.5003186   0.7534610  )

     number of k points=     1
                       cart. coord. in units 2pi/alat
        k(    1) = (   0.0000000   0.0000000   0.0000000), wk =   2.0000000

     Dense  grid:    98963 G-vectors     FFT dimensions: (  75,  75,  75)

     Estimated max dynamical RAM per process >     289.83 MB

     Initial potential from superposition of free atoms

     starting charge     253.0416, renormalised to     256.0000
     Starting wfcs are random

     total cpu time spent up to now is        1.4 secs

     Self-consistent Calculation

     iteration #  1     ecut=    30.00 Ry     beta= 0.50
     Davidson diagonalization with overlap
     ethr =  1.00E-02,  avg # of iterations = 14.0

     Threshold (ethr) on eigenvalues was too large:
     Diagonalizing with lowered threshold

     Davidson diagonalization with overlap
     ethr =  6.46E-04,  avg # of iterations =  5.0

     total cpu time spent up to now is        1.8 secs

     total energy              =    -503.86421169 Ry
     estimated scf accuracy    <       1.80143117 Ry

     iteration #  2     ecut=    30.00 Ry     beta= 0.50
     Davidson diagonalization with overlap
     ethr =  7.04E-04,  avg # of iterations =  1.0

     total cpu time spent up to now is        2.0 secs

     total energy              =    -503.86402198 Ry
     estimated scf accuracy    <       0.34049484 Ry

     iteration #  3     ecut=    30.00 Ry     beta= 0.50
     Davidson diagonalization with overlap
     ethr =  1.33E-04,  avg # of iterations =  2.0

     total cpu time spent up to now is        2.1 secs

     total energy              =    -503.89659108 Ry
     estimated scf accuracy    <       0.00484834 Ry

     iteration #  4     ecut=    30.00 Ry     beta= 0.50
     Davidson diagonalization with overlap
     ethr =  1.89E-06,  avg # of iterations = 12.0

     total cpu time spent up to now is        2.4 secs

     total energy              =    -503.90544620 Ry
     estimated scf accuracy    <       0.00293304 Ry

     iteration #  5     ecut=    30.00 Ry     beta= 0.50
     Davidson diagonalization with overlap
     ethr =  1.15E-06,  avg # of iterations =  3.0

     total cpu time spent up to now is        2.5 secs

     total energy              =    -503.90612053 Ry
     estimated scf accuracy    <       0.00033935 Ry

     iteration #  6     ecut=    30.00 Ry     beta= 0.50
     Davidson diagonalization with overlap
     ethr =  1.33E-07,  avg # of iterations =  2.0

     total cpu time spent up to now is        2.7 secs

     total energy              =    -503.90611471 Ry
     estimated scf accuracy    <       0.00010885 Ry

     iteration #  7     ecut=    30.00 Ry     beta= 0.50
     Davidson diagonalization with overlap
     ethr =  4.25E-08,  avg # of iterations =  4.0

     total cpu time spent up to now is        2.8 secs

     total energy              =    -503.90614389 Ry
     estimated scf accuracy    <       0.00004916 Ry

     iteration #  8     ecut=    30.00 Ry     beta= 0.50
     Davidson diagonalization with overlap
     ethr =  1.92E-08,  avg # of iterations =  3.0

     total cpu time spent up to now is        3.0 secs

     total energy              =    -503.90615136 Ry
     estimated scf accuracy    <       0.00000224 Ry

     iteration #  9     ecut=    30.00 Ry     beta= 0.50
     Davidson diagonalization with overlap
     ethr =  8.74E-10,  avg # of iterations =  6.0

     total cpu time spent up to now is        3.2 secs

     total energy              =    -503.90615188 Ry
     estimated scf accuracy    <       0.00000500 Ry

     iteration # 10     ecut=    30.00 Ry     beta= 0.50
     Davidson diagonalization with overlap
     ethr =  8.74E-10,  avg # of iterations =  3.0

     total cpu time spent up to now is        3.3 secs

     End of self-consistent calculation

          k = 0.0000 0.0000 0.0000 ( 12387 PWs)   bands (ev):

    -5.8211  -4.8206  -4.7967  -4.7791  -4.7494  -4.7180  -4.7009  -3.9485
    -3.9104  -3.8818  -3.8612  -3.8527  -3.8214  -3.8095  -3.8042  -3.7902
    -3.7526  -3.7438  -3.7226  -3.5889  -3.5364  -3.5269  -3.4277  -1.8832
    -1.8588  -1.8098  -1.7760  -1.7400  -1.7189  -1.6718  -1.6599  -1.6450
    -1.6397  -1.6241  -1.6092  -1.5966  -1.5859  -1.5816  -1.5599  -1.5404
    -1.5091  -0.9533  -0.8930  -0.8719  -0.8124   0.4740   0.4824   0.4992
     0.5013   0.5102   0.5183   0.5243   0.5388   0.5406   0.5460   0.5724
     0.5858   2.1225   2.1262   2.1327   2.1389   2.1822   2.1887   2.1963
     2.2056   2.2146   2.2182   2.2383   2.2394   2.2962   2.2992   2.3059
     2.3186   2.3239   2.3348   2.3401   2.3455   2.3511   2.3535   2.3683
     2.3692   2.4155   2.4404   2.4837   2.4901   2.5039   2.5111   3.1114
     3.1504   3.1798   3.1893   3.2107   3.2248   4.0175   4.0831   4.0854
     4.0966   4.0984   4.1086   4.1339   4.1389   4.1551   4.1702   4.1821
     4.2481   4.3849   4.5886   4.6302   4.6432   4.6536   4.6623   4.6747
     4.6767   4.6904   4.7016   4.7071   4.7134   4.7613   4.7769   4.7801
     4.7996   4.8102   4.8236   4.8345   5.0480   5.8905   5.9848   6.0330

     highest occupied level (ev):     6.0330

!    total energy              =    -503.90615245 Ry
     estimated scf accuracy    <       0.00000016 Ry

     The total energy is the sum of the following terms:
     one-electron contribution =     144.08166772 Ry
     hartree contribution      =      37.19858472 Ry
     xc contribution           =    -153.48697689 Ry
     ewald contribution        =    -531.69942800 Ry

     convergence has been achieved in  10 iterations

     Forces acting on atoms (cartesian axes, Ry/au):

     atom    1 type  1   force =    -0.00098561   -0.00126869   -0.00154383
     atom    2 type  1   force =     0.02984182    0.00084591    0.00297058
     atom    3 type  1   force =     0.00064047   -0.00500140   -0.00426445
     atom    4 type  1   force =     0.02333234   -0.02412252    0.01411858
     atom    5 type  1   force =     0.00258870   -0.00433829   -0.00404194
     atom    6 type  1   force =    -0.00127206    0.00118448    0.01362658
     atom    7 type  1   force =     0.00439685    0.00132086   -0.00425463
     atom    8 type  1   force =     0.00608018   -0.02272978   -0.00130518
     atom    9 type  1   force =    -0.00281279   -0.00786055    0.00335089
     atom   10 type  1   force =     0.03012529    0.00216033   -0.00026426
     atom   11 type  1   force =     0.00020518   -0.00835769   -0.01096273
     atom   12 type  1   force =     0.02787881   -0.02408033    0.00549012
     atom   13 type  1   force =     0.00036842   -0.00414890   -0.00447903
     atom   14 type  1   force =     0.00294423    0.00466151    0.00310005
     atom   15 type  1   force =    -0.00237232   -0.00185114   -0.00251424
     atom   16 type  1   force =     0.00857220   -0.01970127    0.00210577
     atom   17 type  1   force =     0.00422948    0.02824111    0.00669690
     atom   18 type  1   force =     0.02635870    0.00621578   -0.00632246
     atom   19 type  1   force =     0.00126913   -0.00232681   -0.00088819
     atom   20 type  1   force =     0.02666274    0.00057487   -0.00042042
     atom   21 type  1   force =     0.00375219    0.01992910    0.00457312
     atom   22 type  1   force =    -0.00361387   -0.00328848    0.00543338
     atom   23 type  1   force =     0.00726117    0.00273278    0.00444856
     atom   24 type  1   force =     0.00099003    0.00119660   -0.00056888
     atom   25 type  1   force =     0.00338728    0.02101939    0.00255659
     atom   26 type  1   force =     0.02719365    0.00481825    0.00434753
     atom   27 type  1   force =     0.00449087   -0.00073100   -0.00456686
     atom   28 type  1   force =     0.02888307    0.01032756   -0.00532904
     atom   29 type  1   force =    -0.00121228    0.01925205   -0.00949910
     atom   30 type  1   force =     0.00199113    0.00660302   -0.00243381
     atom   31 type  1   force =     0.00474875   -0.00797386    0.00172267
     atom   32 type  1   force =    -0.00217474    0.00640524   -0.00672785
     atom   33 type  1   force =    -0.03310019   -0.00017438    0.00399143
     atom   34 type  1   force =    -0.00214685    0.00281372    0.00472371
     atom   35 type  1   force =    -0.03330107    0.00039772    0.00188496
     atom   36 type  1   force =    -0.00255833   -0.02061607    0.00414967
     atom   37 type  1   force =    -0.00445967    0.00187900   -0.00313503
     atom   38 type  1   force =     0.00228073    0.00169938    0.00272866
     atom   39 type  1   force =    -0.00222346   -0.00922161    0.00227681
     atom   40 type  1   force =    -0.00541591   -0.01905110    0.00376704
     atom   41 type  1   force =    -0.03277621   -0.00357012    0.00603674
     atom   42 type  1   force =    -0.00275289   -0.00199939   -0.00383040
     atom   43 type  1   force =    -0.03038145   -0.00350069   -0.00638784
     atom   44 type  1   force =    -0.00054833   -0.02903598   -0.00539923
     atom   45 type  1   force =     0.00010515    0.00013394   -0.00687059
     atom   46 type  1   force =     0.00186686   -0.00553386   -0.00314140
     atom   47 type  1   force =     0.00239524   -0.00028147    0.00676722
     atom   48 type  1   force =    -0.00719115   -0.01857799   -0.00075574
     atom   49 type  1   force =    -0.02022635    0.02197379   -0.00678198
     atom   50 type  1   force =    -0.00027967    0.00590210    0.00350722
     atom   51 type  1   force =    -0.02475570   -0.00775350    0.00464060
     atom   52 type  1   force =    -0.00307460    0.00111317    0.00857288
     atom   53 type  1   force =    -0.00557923    0.02558332    0.00021713
     atom   54 type  1   force =    -0.00204332    0.00361934    0.01438794
     atom   55 type  1   force =    -0.00248985   -0.00307001   -0.00171877
     atom   56 type  1   force =    -0.00040678   -0.00253279   -0.00132275
     atom   57 type  1   force =    -0.02352016    0.02255751   -0.00564473
     atom   58 type  1   force =    -0.00636047    0.00604788   -0.00469833
     atom   59 type  1   force =    -0.02383912   -0.00468653   -0.01151296
     atom   60 type  1   force =     0.00537330    0.00741271   -0.00123486
     atom   61 type  1   force =    -0.00122736    0.02751295   -0.00762651
     atom   62 type  1   force =    -0.00459676    0.00456990    0.00432795
     atom   63 type  1   force =    -0.00247208   -0.00431059   -0.00574875
     atom   64 type  1   force =     0.00195669    0.00099149   -0.00032449

     Total force =     0.156643     Total SCF correction =     0.000745


     Computing stress (Cartesian axis) and pressure

          total   stress  (Ry/bohr**3)                   (kbar)     P=        2.82
   0.00003669  -0.00000742   0.00001333            5.40       -1.09        1.96
  -0.00000742  -0.00001197  -0.00003059           -1.09       -1.76       -4.50
   0.00001333  -0.00003059   0.00003273            1.96       -4.50        4.81

 
     init_run     :      0.89s CPU      1.37s WALL (       1 calls)
     electrons    :      1.87s CPU      1.93s WALL (       1 calls)
     forces       :      0.06s CPU      0.06s WALL (       1 calls)
     stress       :      0.24s CPU      0.24s WALL (       1 calls)

     Called by init_run:
     wfcinit      :      0.52s CPU      0.87s WALL (       1 calls)
                                        0.87s GPU  (       1 calls)
     potinit      :      0.22s CPU      0.28s WALL (       1 calls)
     hinit0       :      0.12s CPU      0.12s WALL (       1 calls)

     Called by electrons:
     c_bands      :      1.19s CPU      1.20s WALL (      11 calls)
     sum_band     :      0.27s CPU      0.29s WALL (      11 calls)
     v_of_rho     :      0.16s CPU      0.24s WALL (      11 calls)
     mix_rho      :      0.23s CPU      0.24s WALL (      11 calls)

     Called by c_bands:
     init_us_2    :      0.03s CPU      0.04s WALL (      23 calls)
     init_us_2:gp :      0.03s CPU      0.04s WALL (      23 calls)
     regterg      :      1.09s CPU      1.09s WALL (      11 calls)

     Called by *egterg:
     rdiaghg      :      0.30s CPU      0.37s WALL (      65 calls)
                                        0.36s GPU  (      65 calls)
     h_psi        :      1.14s CPU      1.42s WALL (      67 calls)
                                        1.41s GPU  (      67 calls)
     g_psi        :      0.00s CPU      0.00s WALL (      55 calls)
                                        0.00s GPU  (      55 calls)

     Called by h_psi:
     h_psi:calbec :      0.41s CPU      0.71s WALL (      67 calls)
                                        0.71s GPU  (      67 calls)
     vloc_psi     :      0.63s CPU      0.63s WALL (      67 calls)
                                        0.63s GPU  (      67 calls)
     add_vuspsi   :      0.03s CPU      0.06s WALL (      67 calls)
                                        0.06s GPU  (      67 calls)

     General routines
     calbec       :      0.41s CPU      0.68s WALL (      72 calls)
     fft          :      0.17s CPU      0.19s WALL (      95 calls)
                                        0.03s GPU  (      59 calls)
     ffts         :      0.04s CPU      0.05s WALL (      11 calls)
     fftw         :      0.03s CPU      0.71s WALL (    1054 calls)
                                        0.61s GPU  (    1054 calls)
 
     Parallel routines
 
     PWSCF        :      3.10s CPU      3.66s WALL

 
   This run was terminated on:  21:48:49   8Jul2023            

=------------------------------------------------------------------------------=
   JOB DONE.
=------------------------------------------------------------------------------=
