An instance of this daemon is already running
An instance of this daemon is already running

     Program PWSCF v.7.1 starts on 10May2023 at 11: 6: 7 

     This program is part of the open-source Quantum ESPRESSO suite
     for quantum simulation of materials; please cite
         "P. Giannozzi et al., J. Phys.:Condens. Matter 21 395502 (2009);
         "P. Giannozzi et al., J. Phys.:Condens. Matter 29 465901 (2017);
         "P. Giannozzi et al., J. Chem. Phys. 152 154105 (2020);
          URL http://www.quantum-espresso.org", 
     in publications or presentations arising from this work. More details at
     http://www.quantum-espresso.org/quote

     Parallel version (MPI & OpenMP), running on       4 processor cores
     Number of MPI processes:                 4
     Threads/MPI process:                     1

     MPI processes distributed on     1 nodes
     152792 MiB available memory on the printing compute node when the environment starts
 
     Reading input from pw-si-73.in
Warning: card &CELL ignored
Warning: card / ignored

     Current dimensions of program PWSCF are:
     Max number of different atomic species (ntypx) = 10
     Max number of k-points (npk) =  40000
     Max angular momentum in pseudopotentials (lmaxx) =  4

     IMPORTANT: XC functional enforced from input :
     Exchange-correlation= PBE
                           (   1   4   3   4   0   0   0)
     Any further DFT definition will be discarded
     Please, verify this is what you really want


     gamma-point specific algorithms are used
 
     K-points division:     npool     =       2
     R & G space division:  proc/nbgrp/npool/nimage =       2
     Subspace diagonalization in iterative solution of the eigenvalue problem:
     a serial algorithm will be used

     Message from routine divide_et_impera:
     suboptimal parallelization: some nodes have no k-points
 
     Parallelization info
     --------------------
     sticks:   dense  smooth     PW     G-vecs:    dense   smooth      PW
     Min        2064    2064    543                99604    99604   13539
     Max        2065    2065    546                99605    99605   13542
     Sum        4129    4129   1089               199209   199209   27081
 
     Using Slab Decomposition
 


     bravais-lattice index     =            0
     lattice parameter (alat)  =      20.8591  a.u.
     unit-cell volume          =    8971.5916 (a.u.)^3
     number of atoms/cell      =           64
     number of atomic types    =            1
     number of electrons       =       256.00
     number of Kohn-Sham states=          154
     kinetic-energy cutoff     =      30.0000  Ry
     charge density cutoff     =     120.0000  Ry
     scf convergence threshold =      1.0E-06
     mixing beta               =       0.5000
     number of iterations used =            8  plain     mixing
     Exchange-correlation= PBE
                           (   1   4   3   4   0   0   0)

     GPU acceleration is ACTIVE.
     GPU-aware MPI enabled

     Message from routine print_cuda_info:
     High GPU oversubscription detected. Are you sure this is what you want?

     celldm(1)=  20.859055  celldm(2)=   0.000000  celldm(3)=   0.000000
     celldm(4)=   0.000000  celldm(5)=   0.000000  celldm(6)=   0.000000

     crystal axes: (cart. coord. in units of alat)
               a(1) = (   1.000000   0.000000   0.000000 )  
               a(2) = (   0.000000   0.991603   0.000000 )  
               a(3) = (   0.000000   0.000000   0.996891 )  

     reciprocal axes: (cart. coord. in units 2 pi/alat)
               b(1) = (  1.000000  0.000000  0.000000 )  
               b(2) = (  0.000000  1.008468  0.000000 )  
               b(3) = (  0.000000  0.000000  1.003119 )  


     PseudoPot. # 1 for Si read from file:
     /home/ppiaggi/pseudos/Si_ONCV_PBE_sr.upf
     MD5 check sum: 8553c464762ac42b85b1eed164b4d029
     Pseudo is Norm-conserving, Zval =  4.0
     Generated using ONCVPSP code by D. R. Hamann
     Using radial grid of 1510 points,  4 beta functions with: 
                l(1) =   0
                l(2) =   0
                l(3) =   1
                l(4) =   1

     atomic species   valence    mass     pseudopotential
        Si             4.00    28.08500     Si( 1.00)

     No symmetry found



   Cartesian axes

     site n.     atom                  positions (alat units)
         1           Si  tau(   1) = (   0.0005585   0.0007021  -0.0002557  )
         2           Si  tau(   2) = (   0.0007621   0.2505382   0.2510426  )
         3           Si  tau(   3) = (   0.2479575  -0.0003914   0.2500163  )
         4           Si  tau(   4) = (   0.2497020   0.2497854   0.0001389  )
         5           Si  tau(   5) = (   0.1241483   0.1244372   0.1255599  )
         6           Si  tau(   6) = (   0.4980074  -0.0004748   0.0004949  )
         7           Si  tau(   7) = (   0.4985987   0.2496329   0.2499618  )
         8           Si  tau(   8) = (   0.6216604   0.1252701   0.1249779  )
         9           Si  tau(   9) = (   0.7466925  -0.0006669   0.2501757  )
        10           Si  tau(  10) = (   0.7469312   0.2506011   0.0001591  )
        11           Si  tau(  11) = (   0.0006885   0.5004145  -0.0003656  )
        12           Si  tau(  12) = (   0.2488860   0.5005266   0.2505578  )
        13           Si  tau(  13) = (   0.1252651   0.6246044   0.1248059  )
        14           Si  tau(  14) = (   0.3729087   0.3745749   0.1248870  )
        15           Si  tau(  15) = (   0.4983288   0.4990692  -0.0002350  )
        16           Si  tau(  16) = (   0.6227300   0.6243932   0.1260119  )
        17           Si  tau(  17) = (   0.8701714   0.3744870   0.1248223  )
        18           Si  tau(  18) = (   0.7465136   0.4992280   0.2506548  )
        19           Si  tau(  19) = (  -0.0001421   0.7495603   0.2513149  )
        20           Si  tau(  20) = (   0.2494843   0.7503762  -0.0008727  )
        21           Si  tau(  21) = (   0.3741780   0.8748769   0.1249673  )
        22           Si  tau(  22) = (   0.4980003   0.7495788   0.2508830  )
        23           Si  tau(  23) = (   0.7458051   0.7487069   0.0001219  )
        24           Si  tau(  24) = (   0.8708715   0.8748222   0.1251578  )
        25           Si  tau(  25) = (  -0.0002161  -0.0008901   0.5010451  )
        26           Si  tau(  26) = (   0.2495889   0.2500486   0.5006793  )
        27           Si  tau(  27) = (   0.1237382   0.1242202   0.6268203  )
        28           Si  tau(  28) = (   0.3725092   0.1250217   0.3759444  )
        29           Si  tau(  29) = (   0.4969490  -0.0007964   0.5007514  )
        30           Si  tau(  30) = (   0.6222569   0.1249169   0.6257236  )
        31           Si  tau(  31) = (   0.8714214   0.1251529   0.3753833  )
        32           Si  tau(  32) = (   0.7471718   0.2492011   0.5006999  )
        33           Si  tau(  33) = (   0.1246748   0.3741337   0.3765791  )
        34           Si  tau(  34) = (   0.0000356   0.5004752   0.5006678  )
        35           Si  tau(  35) = (   0.1245673   0.6250307   0.6258552  )
        36           Si  tau(  36) = (   0.6227806   0.3741692   0.3756268  )
        37           Si  tau(  37) = (   0.3729871   0.6242535   0.3752397  )
        38           Si  tau(  38) = (   0.3737090   0.3746448   0.6261844  )
        39           Si  tau(  39) = (   0.4985587   0.4997180   0.5020032  )
        40           Si  tau(  40) = (   0.6225167   0.6245616   0.6257110  )
        41           Si  tau(  41) = (   0.8710950   0.6241928   0.3753241  )
        42           Si  tau(  42) = (   0.8706109   0.3749415   0.6267252  )
        43           Si  tau(  43) = (   0.1239048   0.8742443   0.3762774  )
        44           Si  tau(  44) = (   0.2487315   0.7489964   0.5017979  )
        45           Si  tau(  45) = (   0.6215845   0.8748165   0.3762171  )
        46           Si  tau(  46) = (   0.3741331   0.8744907   0.6273101  )
        47           Si  tau(  47) = (   0.7460728   0.7503455   0.5007775  )
        48           Si  tau(  48) = (   0.8701074   0.8743940   0.6257567  )
        49           Si  tau(  49) = (  -0.0000194   0.2503183   0.7510554  )
        50           Si  tau(  50) = (   0.2496954  -0.0004908   0.7515616  )
        51           Si  tau(  51) = (   0.3729354   0.1245455   0.8763703  )
        52           Si  tau(  52) = (   0.4983827   0.2495692   0.7511851  )
        53           Si  tau(  53) = (   0.7458248   0.0005446   0.7512978  )
        54           Si  tau(  54) = (   0.8701400   0.1253419   0.8769114  )
        55           Si  tau(  55) = (   0.1249836   0.3741317   0.8763578  )
        56           Si  tau(  56) = (   0.2480339   0.4999786   0.7521075  )
        57           Si  tau(  57) = (   0.6225306   0.3740868   0.8768655  )
        58           Si  tau(  58) = (   0.3727397   0.6244800   0.8773451  )
        59           Si  tau(  59) = (   0.7466909   0.5004855   0.7512595  )
        60           Si  tau(  60) = (   0.8714491   0.6243082   0.8779584  )
        61           Si  tau(  61) = (  -0.0003331   0.7503596   0.7513531  )
        62           Si  tau(  62) = (   0.1239402   0.8751420   0.8780374  )
        63           Si  tau(  63) = (   0.4975150   0.7501304   0.7511658  )
        64           Si  tau(  64) = (   0.6216110   0.8736032   0.8781087  )

     number of k points=     1  Fermi-Dirac smearing, width (Ry)=  0.0100
                       cart. coord. in units 2pi/alat
        k(    1) = (   0.0000000   0.0000000   0.0000000), wk =   2.0000000

     Dense  grid:    99605 G-vectors     FFT dimensions: (  75,  75,  75)

     Estimated max dynamical RAM per process >     160.14 MB

     Estimated total dynamical RAM >     616.25 MB

     Initial potential from superposition of free atoms

     starting charge     255.9608, renormalised to     256.0000
     Starting wfcs are  256 randomized atomic wfcs

     total cpu time spent up to now is        4.0 secs

     Self-consistent Calculation

     iteration #  1     ecut=    30.00 Ry     beta= 0.50
     Davidson diagonalization with overlap
     ethr =  1.00E-02,  avg # of iterations =  3.0

     Threshold (ethr) on eigenvalues was too large:
     Diagonalizing with lowered threshold

     Davidson diagonalization with overlap
     ethr =  6.43E-04,  avg # of iterations =  4.0

     total cpu time spent up to now is        4.2 secs

     total energy              =    -503.96239079 Ry
     estimated scf accuracy    <       1.82601514 Ry

     iteration #  2     ecut=    30.00 Ry     beta= 0.50
     Davidson diagonalization with overlap
     ethr =  7.13E-04,  avg # of iterations =  1.0

     total cpu time spent up to now is        4.3 secs

     total energy              =    -503.94366297 Ry
     estimated scf accuracy    <       0.34495370 Ry

     iteration #  3     ecut=    30.00 Ry     beta= 0.50
     Davidson diagonalization with overlap
     ethr =  1.35E-04,  avg # of iterations =  4.0

     total cpu time spent up to now is        4.4 secs

     total energy              =    -503.96507510 Ry
     estimated scf accuracy    <       0.00836840 Ry

     iteration #  4     ecut=    30.00 Ry     beta= 0.50
     Davidson diagonalization with overlap
     c_bands:  1 eigenvalues not converged
     ethr =  3.27E-06,  avg # of iterations = 20.0

     total cpu time spent up to now is        4.6 secs

     total energy              =    -503.96728385 Ry
     estimated scf accuracy    <       0.00943850 Ry

     iteration #  5     ecut=    30.00 Ry     beta= 0.50
     Davidson diagonalization with overlap
     c_bands:  4 eigenvalues not converged
     ethr =  3.27E-06,  avg # of iterations = 20.0

     total cpu time spent up to now is        4.9 secs

     total energy              =    -503.96900622 Ry
     estimated scf accuracy    <       0.00065722 Ry

     iteration #  6     ecut=    30.00 Ry     beta= 0.50
     Davidson diagonalization with overlap
     ethr =  2.57E-07,  avg # of iterations =  8.0

     total cpu time spent up to now is        5.0 secs

     total energy              =    -503.96905516 Ry
     estimated scf accuracy    <       0.00012538 Ry

     iteration #  7     ecut=    30.00 Ry     beta= 0.50
     Davidson diagonalization with overlap
     ethr =  4.90E-08,  avg # of iterations =  5.0

     total cpu time spent up to now is        5.1 secs

     total energy              =    -503.96906922 Ry
     estimated scf accuracy    <       0.00000977 Ry

     iteration #  8     ecut=    30.00 Ry     beta= 0.50
     Davidson diagonalization with overlap
     ethr =  3.81E-09,  avg # of iterations =  4.0

     total cpu time spent up to now is        5.2 secs

     total energy              =    -503.96907267 Ry
     estimated scf accuracy    <       0.00000145 Ry

     iteration #  9     ecut=    30.00 Ry     beta= 0.50
     Davidson diagonalization with overlap
     ethr =  5.67E-10,  avg # of iterations =  4.0

     total cpu time spent up to now is        5.3 secs

     End of self-consistent calculation

          k = 0.0000 0.0000 0.0000 ( 12471 PWs)   bands (ev):

    -5.8494  -4.8420  -4.8344  -4.8322  -4.7713  -4.7616  -4.7335  -3.9865
    -3.9506  -3.9404  -3.8938  -3.8722  -3.8690  -3.8581  -3.8519  -3.8425
    -3.7939  -3.7754  -3.7691  -3.6356  -3.5848  -3.5699  -3.5016  -1.9559
    -1.8891  -1.8619  -1.8134  -1.7982  -1.7644  -1.7197  -1.7096  -1.6998
    -1.6975  -1.6746  -1.6660  -1.6599  -1.6491  -1.6250  -1.6169  -1.6086
    -1.6060  -0.9955  -0.9437  -0.9069  -0.8586   0.4144   0.4212   0.4264
     0.4379   0.4513   0.4562   0.4664   0.4748   0.4800   0.4884   0.5079
     0.5150   2.0745   2.0794   2.0936   2.1004   2.1247   2.1441   2.1584
     2.1685   2.1727   2.1758   2.1878   2.1927   2.2449   2.2557   2.2620
     2.2663   2.2738   2.2826   2.2888   2.2917   2.3049   2.3088   2.3227
     2.3270   2.3588   2.3716   2.3854   2.4090   2.4135   2.4274   3.0570
     3.0911   3.1180   3.1393   3.1515   3.1765   3.9502   3.9954   4.0145
     4.0409   4.0463   4.0545   4.0922   4.0952   4.0990   4.1092   4.1168
     4.1553   4.3235   4.4606   4.5699   4.5786   4.5826   4.6050   4.6091
     4.6228   4.6352   4.6420   4.6621   4.6688   4.6956   4.7166   4.7224
     4.7344   4.7431   4.7583   4.7845   4.8970   5.8167   5.9138   5.9518
     6.5287   6.5681   6.6097   6.6535   6.6864   6.7283   6.9863   7.0163
     7.0235   7.0353   7.0584   7.0788   7.2503   7.2549   7.2581   7.2844
     8.1394   8.2061   8.2548   8.2646   8.2701   8.2827   8.2909   8.2949
     8.3013   8.3256

     the Fermi energy is     6.2040 ev

!    total energy              =    -503.96907237 Ry
     estimated scf accuracy    <       0.00000074 Ry
     smearing contrib. (-TS)   =      -0.04332817 Ry
     internal energy E=F+TS    =    -503.92574421 Ry

     The total energy is F=E-TS. E is the sum of the following terms:
     one-electron contribution =     142.74888802 Ry
     hartree contribution      =      37.14714602 Ry
     xc contribution           =    -153.16081392 Ry
     ewald contribution        =    -530.66096432 Ry

     convergence has been achieved in   9 iterations

     Forces acting on atoms (cartesian axes, Ry/au):

     atom    1 type  1   force =    -0.02402033    0.02598803    0.02066252
     atom    2 type  1   force =    -0.01648965   -0.00242968   -0.00379671
     atom    3 type  1   force =     0.00353415    0.02274118    0.00296035
     atom    4 type  1   force =    -0.00477456   -0.00290431    0.01477142
     atom    5 type  1   force =     0.00018884    0.00813380    0.00028025
     atom    6 type  1   force =    -0.00284892    0.03071964    0.01302111
     atom    7 type  1   force =    -0.00608981    0.00110488    0.00327121
     atom    8 type  1   force =     0.00568457   -0.00021708    0.00177706
     atom    9 type  1   force =    -0.00104357    0.02927177    0.00187187
     atom   10 type  1   force =    -0.00153063   -0.00509902    0.01542468
     atom   11 type  1   force =    -0.01319236   -0.00738576    0.01727165
     atom   12 type  1   force =    -0.00126879   -0.00832522   -0.00085532
     atom   13 type  1   force =    -0.00399525    0.00538220    0.00356561
     atom   14 type  1   force =     0.00326190    0.00327173    0.00536665
     atom   15 type  1   force =    -0.00149499    0.00183687    0.01743669
     atom   16 type  1   force =    -0.00426702   -0.00170284    0.00032282
     atom   17 type  1   force =     0.02094177    0.00528947    0.00458961
     atom   18 type  1   force =     0.00298965   -0.00085554   -0.00036349
     atom   19 type  1   force =    -0.01164509   -0.00399520   -0.00613510
     atom   20 type  1   force =    -0.00152827   -0.00416310    0.02159546
     atom   21 type  1   force =    -0.00524748   -0.02644121    0.00583030
     atom   22 type  1   force =    -0.00055548   -0.00304012   -0.00132779
     atom   23 type  1   force =     0.00730016   -0.00050163    0.01837175
     atom   24 type  1   force =     0.01576908   -0.02656120   -0.00190139
     atom   25 type  1   force =    -0.01510927    0.02730080    0.00105772
     atom   26 type  1   force =    -0.00438974   -0.00329286    0.00536300
     atom   27 type  1   force =     0.00341271    0.00438705   -0.00393757
     atom   28 type  1   force =     0.00283977    0.00049378   -0.00430102
     atom   29 type  1   force =     0.00142535    0.02986755    0.00130267
     atom   30 type  1   force =    -0.00234869    0.00106941   -0.00172467
     atom   31 type  1   force =     0.01334601   -0.00095155    0.00036720
     atom   32 type  1   force =     0.00140970    0.00225202    0.00063031
     atom   33 type  1   force =    -0.00030501    0.00798325   -0.00191476
     atom   34 type  1   force =    -0.01338569   -0.00528531    0.00178892
     atom   35 type  1   force =    -0.00493714   -0.00114323    0.00458487
     atom   36 type  1   force =    -0.00227822    0.00212008    0.00334649
     atom   37 type  1   force =     0.00315890    0.00160302    0.00672204
     atom   38 type  1   force =    -0.00228398    0.00338305    0.00357999
     atom   39 type  1   force =    -0.00244367   -0.00266038   -0.00838620
     atom   40 type  1   force =    -0.00090646    0.00464674    0.00354054
     atom   41 type  1   force =     0.00994609    0.00315362    0.00287804
     atom   42 type  1   force =     0.01464853    0.00247679   -0.00416128
     atom   43 type  1   force =     0.00233928   -0.02535449    0.00016408
     atom   44 type  1   force =     0.00416466    0.00149858   -0.00393835
     atom   45 type  1   force =     0.00220303   -0.02460274   -0.00298343
     atom   46 type  1   force =    -0.00550414   -0.02595959   -0.00600679
     atom   47 type  1   force =     0.00373033   -0.00801808   -0.00275469
     atom   48 type  1   force =     0.01431844   -0.02065520    0.00253722
     atom   49 type  1   force =    -0.01460905   -0.00258050    0.00103072
     atom   50 type  1   force =    -0.00734351    0.02473798    0.00051359
     atom   51 type  1   force =     0.00508330    0.00281265   -0.01343754
     atom   52 type  1   force =    -0.00201230   -0.00039833   -0.00072554
     atom   53 type  1   force =     0.00114518    0.01844391    0.00208143
     atom   54 type  1   force =     0.01777846    0.00140607   -0.01723119
     atom   55 type  1   force =    -0.00452303    0.00249654   -0.01192927
     atom   56 type  1   force =     0.00438263   -0.00252745   -0.00624922
     atom   57 type  1   force =     0.00008521    0.00514216   -0.01906361
     atom   58 type  1   force =     0.00408265   -0.00014730   -0.01971711
     atom   59 type  1   force =     0.00170935   -0.00382540    0.00226107
     atom   60 type  1   force =     0.01156483    0.00254438   -0.02161782
     atom   61 type  1   force =    -0.01240755   -0.00457728    0.00039695
     atom   62 type  1   force =     0.00426334   -0.02689455   -0.02620684
     atom   63 type  1   force =     0.00305583   -0.00976918    0.00263625
     atom   64 type  1   force =     0.00501596   -0.02129366   -0.02450740

     Total force =     0.147926     Total SCF correction =     0.001703


     Computing stress (Cartesian axis) and pressure

          total   stress  (Ry/bohr**3)                   (kbar)     P=       -3.87
  -0.00004464  -0.00002337  -0.00002548           -6.57       -3.44       -3.75
  -0.00002337  -0.00000561   0.00002028           -3.44       -0.83        2.98
  -0.00002548   0.00002028  -0.00002873           -3.75        2.98       -4.23

 
     init_run     :      0.91s CPU      3.93s WALL (       1 calls)
     electrons    :      1.28s CPU      1.34s WALL (       1 calls)
     forces       :      0.04s CPU      0.04s WALL (       1 calls)
     stress       :      0.15s CPU      0.15s WALL (       1 calls)

     Called by init_run:
     wfcinit      :      0.56s CPU      3.45s WALL (       1 calls)
                                        3.45s GPU  (       1 calls)
     potinit      :      0.16s CPU      0.22s WALL (       1 calls)
     hinit0       :      0.17s CPU      0.19s WALL (       1 calls)

     Called by electrons:
     c_bands      :      0.94s CPU      0.97s WALL (      10 calls)
     sum_band     :      0.19s CPU      0.21s WALL (      10 calls)
     v_of_rho     :      0.09s CPU      0.16s WALL (      10 calls)
     mix_rho      :      0.06s CPU      0.06s WALL (      10 calls)

     Called by c_bands:
     init_us_2    :      0.03s CPU      0.03s WALL (      21 calls)
     init_us_2:gp :      0.03s CPU      0.03s WALL (      21 calls)
     regterg      :      0.86s CPU      0.89s WALL (      10 calls)

     Called by *egterg:
     rdiaghg      :      0.39s CPU      0.98s WALL (      82 calls)
                                        0.96s GPU  (      82 calls)
     h_psi        :      0.89s CPU      3.21s WALL (      84 calls)
                                        3.21s GPU  (      84 calls)
     g_psi        :      0.00s CPU      0.00s WALL (      73 calls)
                                        0.00s GPU  (      73 calls)

     Called by h_psi:
     h_psi:calbec :      0.50s CPU      2.76s WALL (      84 calls)
                                        2.76s GPU  (      84 calls)
     vloc_psi     :      0.35s CPU      0.40s WALL (      84 calls)
                                        0.40s GPU  (      84 calls)
     add_vuspsi   :      0.03s CPU      0.04s WALL (      84 calls)
                                        0.04s GPU  (      84 calls)

     General routines
     calbec       :      0.51s CPU      2.76s WALL (      89 calls)
     fft          :      0.20s CPU      0.29s WALL (      87 calls)
                                        0.10s GPU  (      56 calls)
     ffts         :      0.02s CPU      0.02s WALL (      10 calls)
     fftw         :      0.38s CPU      0.50s WALL (    1148 calls)
                                        0.45s GPU  (    1148 calls)
 
     Parallel routines
 
     PWSCF        :      2.41s CPU      5.54s WALL

 
   This run was terminated on:  11: 6:12  10May2023            

=------------------------------------------------------------------------------=
   JOB DONE.
=------------------------------------------------------------------------------=
