
     Program PWSCF v.7.0 starts on  8Jul2023 at 21:49:22 

     This program is part of the open-source Quantum ESPRESSO suite
     for quantum simulation of materials; please cite
         "P. Giannozzi et al., J. Phys.:Condens. Matter 21 395502 (2009);
         "P. Giannozzi et al., J. Phys.:Condens. Matter 29 465901 (2017);
         "P. Giannozzi et al., J. Chem. Phys. 152 154105 (2020);
          URL http://www.quantum-espresso.org", 
     in publications or presentations arising from this work. More details at
     http://www.quantum-espresso.org/quote

     Parallel version (MPI & OpenMP), running on       1 processor cores
     Number of MPI processes:                 1
     Threads/MPI process:                     1

     MPI processes distributed on     1 nodes
     109275 MiB available memory on the printing compute node when the environment starts
 
     Reading input from pw-si-33.in
Warning: card &CELL ignored
Warning: card / ignored

     Current dimensions of program PWSCF are:
     Max number of different atomic species (ntypx) = 10
     Max number of k-points (npk) =  40000
     Max angular momentum in pseudopotentials (lmaxx) =  4

     IMPORTANT: XC functional enforced from input :
     Exchange-correlation= PBE
                           (   1   4   3   4   0   0   0)
     Any further DFT definition will be discarded
     Please, verify this is what you really want


     gamma-point specific algorithms are used

     Subspace diagonalization in iterative solution of the eigenvalue problem:
     a serial algorithm will be used

 
     G-vector sticks info
     --------------------
     sticks:   dense  smooth     PW     G-vecs:    dense   smooth      PW
     Sum        4115    4115   1027               198467   198467   24863
 
     Using Slab Decomposition
 


     bravais-lattice index     =            0
     lattice parameter (alat)  =      20.6365  a.u.
     unit-cell volume          =    8940.7751 (a.u.)^3
     number of atoms/cell      =           64
     number of atomic types    =            1
     number of electrons       =       256.00
     number of Kohn-Sham states=          128
     kinetic-energy cutoff     =      30.0000  Ry
     charge density cutoff     =     120.0000  Ry
     scf convergence threshold =      1.0E-06
     mixing beta               =       0.5000
     number of iterations used =            8  plain     mixing
     Exchange-correlation= PBE
                           (   1   4   3   4   0   0   0)

     GPU acceleration is ACTIVE.


     celldm(1)=  20.636544  celldm(2)=   0.000000  celldm(3)=   0.000000
     celldm(4)=   0.000000  celldm(5)=   0.000000  celldm(6)=   0.000000

     crystal axes: (cart. coord. in units of alat)
               a(1) = (   1.000000   0.000000   0.000000 )  
               a(2) = (   0.000000   1.012687   0.000000 )  
               a(3) = (   0.000000   0.000000   1.004590 )  

     reciprocal axes: (cart. coord. in units 2 pi/alat)
               b(1) = (  1.000000  0.000000  0.000000 )  
               b(2) = (  0.000000  0.987472  0.000000 )  
               b(3) = (  0.000000  0.000000  0.995431 )  


     PseudoPot. # 1 for Si read from file:
     ./Si_ONCV_PBE-1.0.upf
     MD5 check sum: 2de5a83d12544a9ea852f39b88f19b1f
     Pseudo is Norm-conserving, Zval =  4.0
     Generated using ONCVPSP code by D. R. Hamann
     Using radial grid of  602 points,  4 beta functions with: 
                l(1) =   0
                l(2) =   0
                l(3) =   1
                l(4) =   1

     atomic species   valence    mass     pseudopotential
        Si             4.00    28.08500     Si( 1.00)

     No symmetry found



   Cartesian axes

     site n.     atom                  positions (alat units)
         1           Si  tau(   1) = (   0.3754126   0.3840356   0.1253574  )
         2           Si  tau(   2) = (   0.0004256   0.2555739   0.2508038  )
         3           Si  tau(   3) = (   0.3750840   0.1279453   0.3768783  )
         4           Si  tau(   4) = (  -0.0004792  -0.0000095  -0.0003017  )
         5           Si  tau(   5) = (   0.1258485   0.3831556   0.3764635  )
         6           Si  tau(   6) = (   0.2492633   0.2547841   0.0001701  )
         7           Si  tau(   7) = (   0.1243838   0.1282402   0.1256896  )
         8           Si  tau(   8) = (   0.2509447  -0.0006874   0.2512331  )
         9           Si  tau(   9) = (   0.3755344   0.3830120   0.6273929  )
        10           Si  tau(  10) = (   0.0005398   0.2557332   0.7535541  )
        11           Si  tau(  11) = (   0.3751505   0.1276898   0.8787841  )
        12           Si  tau(  12) = (  -0.0001242   0.0004706   0.5029798  )
        13           Si  tau(  13) = (   0.1247519   0.3835374   0.8780894  )
        14           Si  tau(  14) = (   0.2508863   0.2557770   0.5021757  )
        15           Si  tau(  15) = (   0.1243565   0.1282029   0.6279602  )
        16           Si  tau(  16) = (   0.2498611   0.0003884   0.7535326  )
        17           Si  tau(  17) = (   0.3746856   0.8943279   0.1263171  )
        18           Si  tau(  18) = (   0.0002006   0.7673451   0.2512218  )
        19           Si  tau(  19) = (   0.3743797   0.6379594   0.3760588  )
        20           Si  tau(  20) = (   0.0002484   0.5112755   0.0005044  )
        21           Si  tau(  21) = (   0.1257885   0.8935946   0.3758212  )
        22           Si  tau(  22) = (   0.2502243   0.7671373  -0.0003920  )
        23           Si  tau(  23) = (   0.1255038   0.6391738   0.1259124  )
        24           Si  tau(  24) = (   0.2498668   0.5111863   0.2515891  )
        25           Si  tau(  25) = (   0.3758963   0.8948263   0.6272671  )
        26           Si  tau(  26) = (  -0.0005563   0.7668978   0.7541321  )
        27           Si  tau(  27) = (   0.3744976   0.6384191   0.8794363  )
        28           Si  tau(  28) = (  -0.0007643   0.5110477   0.5017583  )
        29           Si  tau(  29) = (   0.1249708   0.8938467   0.8797098  )
        30           Si  tau(  30) = (   0.2502408   0.7666464   0.5019701  )
        31           Si  tau(  31) = (   0.1242746   0.6383207   0.6277952  )
        32           Si  tau(  32) = (   0.2492880   0.5101568   0.7524810  )
        33           Si  tau(  33) = (   0.8761558   0.3828346   0.1258042  )
        34           Si  tau(  34) = (   0.5010101   0.2560700   0.2519593  )
        35           Si  tau(  35) = (   0.8746586   0.1283472   0.3774353  )
        36           Si  tau(  36) = (   0.5006479   0.0006145  -0.0008430  )
        37           Si  tau(  37) = (   0.6246551   0.3831465   0.3767772  )
        38           Si  tau(  38) = (   0.7507864   0.2561263   0.0008304  )
        39           Si  tau(  39) = (   0.6247105   0.1274311   0.1258739  )
        40           Si  tau(  40) = (   0.7506948   0.0002133   0.2514124  )
        41           Si  tau(  41) = (   0.8757257   0.3824617   0.6284226  )
        42           Si  tau(  42) = (   0.5009013   0.2561010   0.7537464  )
        43           Si  tau(  43) = (   0.8758710   0.1269983   0.8788131  )
        44           Si  tau(  44) = (   0.4993833  -0.0006766   0.5026076  )
        45           Si  tau(  45) = (   0.6258843   0.3833489   0.8786540  )
        46           Si  tau(  46) = (   0.7502173   0.2561133   0.5027451  )
        47           Si  tau(  47) = (   0.6259435   0.1269093   0.6281815  )
        48           Si  tau(  48) = (   0.7506777   0.0006741   0.7531892  )
        49           Si  tau(  49) = (   0.8761430   0.8944612   0.1258271  )
        50           Si  tau(  50) = (   0.5002259   0.7665275   0.2514831  )
        51           Si  tau(  51) = (   0.8763200   0.6389972   0.3763837  )
        52           Si  tau(  52) = (   0.5011393   0.5111517   0.0005327  )
        53           Si  tau(  53) = (   0.6262270   0.8946890   0.3758403  )
        54           Si  tau(  54) = (   0.7504184   0.7666889  -0.0001746  )
        55           Si  tau(  55) = (   0.6244357   0.6385319   0.1254691  )
        56           Si  tau(  56) = (   0.7498858   0.5117115   0.2513164  )
        57           Si  tau(  57) = (   0.8757042   0.8944972   0.6276182  )
        58           Si  tau(  58) = (   0.4997346   0.7660683   0.7529155  )
        59           Si  tau(  59) = (   0.8759576   0.6383216   0.8780692  )
        60           Si  tau(  60) = (   0.4994400   0.5101592   0.5015048  )
        61           Si  tau(  61) = (   0.6256849   0.8937748   0.8790476  )
        62           Si  tau(  62) = (   0.7498423   0.7673828   0.5022563  )
        63           Si  tau(  63) = (   0.6262109   0.6384087   0.6285084  )
        64           Si  tau(  64) = (   0.7494732   0.5113921   0.7526204  )

     number of k points=     1
                       cart. coord. in units 2pi/alat
        k(    1) = (   0.0000000   0.0000000   0.0000000), wk =   2.0000000

     Dense  grid:    99234 G-vectors     FFT dimensions: (  72,  75,  75)

     Estimated max dynamical RAM per process >     289.36 MB

     Initial potential from superposition of free atoms

     starting charge     253.0416, renormalised to     256.0000
     Starting wfcs are random

     total cpu time spent up to now is        1.4 secs

     Self-consistent Calculation

     iteration #  1     ecut=    30.00 Ry     beta= 0.50
     Davidson diagonalization with overlap
     ethr =  1.00E-02,  avg # of iterations = 14.0

     Threshold (ethr) on eigenvalues was too large:
     Diagonalizing with lowered threshold

     Davidson diagonalization with overlap
     ethr =  6.37E-04,  avg # of iterations =  5.0

     total cpu time spent up to now is        1.8 secs

     total energy              =    -503.87715221 Ry
     estimated scf accuracy    <       1.79435546 Ry

     iteration #  2     ecut=    30.00 Ry     beta= 0.50
     Davidson diagonalization with overlap
     ethr =  7.01E-04,  avg # of iterations =  1.0

     total cpu time spent up to now is        1.9 secs

     total energy              =    -503.87622323 Ry
     estimated scf accuracy    <       0.33879577 Ry

     iteration #  3     ecut=    30.00 Ry     beta= 0.50
     Davidson diagonalization with overlap
     ethr =  1.32E-04,  avg # of iterations =  2.0

     total cpu time spent up to now is        2.1 secs

     total energy              =    -503.90780081 Ry
     estimated scf accuracy    <       0.00468055 Ry

     iteration #  4     ecut=    30.00 Ry     beta= 0.50
     Davidson diagonalization with overlap
     ethr =  1.83E-06,  avg # of iterations =  9.0

     total cpu time spent up to now is        2.3 secs

     total energy              =    -503.91654637 Ry
     estimated scf accuracy    <       0.00194230 Ry

     iteration #  5     ecut=    30.00 Ry     beta= 0.50
     Davidson diagonalization with overlap
     ethr =  7.59E-07,  avg # of iterations =  3.0

     total cpu time spent up to now is        2.4 secs

     total energy              =    -503.91698381 Ry
     estimated scf accuracy    <       0.00025972 Ry

     iteration #  6     ecut=    30.00 Ry     beta= 0.50
     Davidson diagonalization with overlap
     ethr =  1.01E-07,  avg # of iterations =  4.0

     total cpu time spent up to now is        2.6 secs

     total energy              =    -503.91698985 Ry
     estimated scf accuracy    <       0.00006880 Ry

     iteration #  7     ecut=    30.00 Ry     beta= 0.50
     Davidson diagonalization with overlap
     ethr =  2.69E-08,  avg # of iterations =  7.0

     total cpu time spent up to now is        2.8 secs

     total energy              =    -503.91700815 Ry
     estimated scf accuracy    <       0.00003863 Ry

     iteration #  8     ecut=    30.00 Ry     beta= 0.50
     Davidson diagonalization with overlap
     ethr =  1.51E-08,  avg # of iterations =  3.0

     total cpu time spent up to now is        2.9 secs

     total energy              =    -503.91701319 Ry
     estimated scf accuracy    <       0.00000199 Ry

     iteration #  9     ecut=    30.00 Ry     beta= 0.50
     Davidson diagonalization with overlap
     ethr =  7.76E-10,  avg # of iterations =  5.0

     total cpu time spent up to now is        3.1 secs

     total energy              =    -503.91701381 Ry
     estimated scf accuracy    <       0.00000548 Ry

     iteration # 10     ecut=    30.00 Ry     beta= 0.50
     Davidson diagonalization with overlap
     ethr =  7.76E-10,  avg # of iterations =  3.0

     total cpu time spent up to now is        3.2 secs

     End of self-consistent calculation

          k = 0.0000 0.0000 0.0000 ( 12432 PWs)   bands (ev):

    -5.8239  -4.8323  -4.7816  -4.7730  -4.7593  -4.7563  -4.7075  -3.9457
    -3.9043  -3.8977  -3.8840  -3.8763  -3.8356  -3.8216  -3.7877  -3.7780
    -3.7733  -3.7675  -3.7572  -3.5889  -3.5493  -3.5410  -3.4992  -1.8808
    -1.8603  -1.8484  -1.7949  -1.7282  -1.7240  -1.6818  -1.6710  -1.6627
    -1.6462  -1.6379  -1.6268  -1.6250  -1.6169  -1.6062  -1.6038  -1.5725
    -1.5661  -0.9283  -0.9202  -0.9111  -0.8258   0.4401   0.4617   0.4862
     0.4990   0.5000   0.5053   0.5093   0.5140   0.5204   0.5281   0.5299
     0.5354   2.1149   2.1195   2.1289   2.1376   2.1945   2.1992   2.2037
     2.2053   2.2097   2.2141   2.2182   2.2219   2.2256   2.2632   2.2696
     2.3015   2.3213   2.3283   2.3329   2.3349   2.3401   2.3456   2.3513
     2.3586   2.3603   2.3860   2.4370   2.4403   2.4634   2.4695   3.1113
     3.1210   3.1650   3.1663   3.1690   3.2220   4.0313   4.0548   4.0614
     4.0687   4.0767   4.0851   4.0914   4.1080   4.1136   4.1213   4.2121
     4.2187   4.4086   4.5640   4.5776   4.6007   4.6095   4.6295   4.6347
     4.6634   4.6681   4.6907   4.7002   4.7114   4.7223   4.7314   4.7477
     4.7648   4.8286   4.8463   4.8548   4.8922   5.8827   5.9258   6.0104

     highest occupied level (ev):     6.0104

!    total energy              =    -503.91701381 Ry
     estimated scf accuracy    <       0.00000059 Ry

     The total energy is the sum of the following terms:
     one-electron contribution =     143.65713143 Ry
     hartree contribution      =      37.16726476 Ry
     xc contribution           =    -153.39499756 Ry
     ewald contribution        =    -531.34641244 Ry

     convergence has been achieved in  10 iterations

     Forces acting on atoms (cartesian axes, Ry/au):

     atom    1 type  1   force =    -0.00144488   -0.00480796    0.00178913
     atom    2 type  1   force =    -0.00063223   -0.00036146    0.00554252
     atom    3 type  1   force =     0.00222804    0.00183905   -0.00053568
     atom    4 type  1   force =     0.00539127    0.03055800    0.00200414
     atom    5 type  1   force =    -0.00372880    0.00071565    0.00208012
     atom    6 type  1   force =     0.00388310    0.00608346   -0.00202823
     atom    7 type  1   force =     0.00313907   -0.00396523    0.00048330
     atom    8 type  1   force =    -0.00599184    0.03790500   -0.00036244
     atom    9 type  1   force =    -0.00014703    0.00010227    0.00282227
     atom   10 type  1   force =    -0.00188238   -0.00217037    0.00155155
     atom   11 type  1   force =    -0.00015631    0.00589544    0.00032557
     atom   12 type  1   force =     0.00534480    0.02715519   -0.00822900
     atom   13 type  1   force =     0.00152069   -0.00131206    0.00662572
     atom   14 type  1   force =    -0.00422979   -0.00224939    0.00126729
     atom   15 type  1   force =     0.00554273    0.00346874   -0.00106665
     atom   16 type  1   force =     0.00013430    0.02710773   -0.00170180
     atom   17 type  1   force =     0.00846701   -0.02961199   -0.00837450
     atom   18 type  1   force =     0.00279336   -0.00734941   -0.00184955
     atom   19 type  1   force =     0.00362691    0.00430297    0.00397207
     atom   20 type  1   force =     0.00200079   -0.00088923   -0.00290027
     atom   21 type  1   force =    -0.00435720   -0.02344071    0.00785380
     atom   22 type  1   force =     0.00016919   -0.00624780    0.00448216
     atom   23 type  1   force =    -0.00126421    0.00064321   -0.00139230
     atom   24 type  1   force =     0.00058070   -0.00170832   -0.00530259
     atom   25 type  1   force =    -0.00834453   -0.03508514    0.00567976
     atom   26 type  1   force =     0.00510897   -0.00461659   -0.00439142
     atom   27 type  1   force =     0.00171783   -0.00197169   -0.00372727
     atom   28 type  1   force =     0.00519726   -0.00395189    0.00168941
     atom   29 type  1   force =     0.00060328   -0.02640408   -0.00386660
     atom   30 type  1   force =    -0.00026771   -0.00605212    0.00227117
     atom   31 type  1   force =     0.00069375    0.00378015   -0.00098193
     atom   32 type  1   force =     0.00425093    0.00347114    0.00200912
     atom   33 type  1   force =    -0.00470937    0.00589379    0.00169956
     atom   34 type  1   force =    -0.00597438   -0.00251722   -0.00499950
     atom   35 type  1   force =     0.00271308    0.00302438   -0.00199120
     atom   36 type  1   force =    -0.00404605    0.02431698    0.00482351
     atom   37 type  1   force =     0.00560951    0.00272473    0.00128547
     atom   38 type  1   force =    -0.00036173   -0.00525251   -0.00370329
     atom   39 type  1   force =     0.00358170    0.00642914   -0.00064551
     atom   40 type  1   force =     0.00151864    0.03219713   -0.00376747
     atom   41 type  1   force =    -0.00382430    0.00536669   -0.00226401
     atom   42 type  1   force =    -0.00165203   -0.00386665   -0.00208116
     atom   43 type  1   force =    -0.00432121    0.01011267    0.00143335
     atom   44 type  1   force =     0.00974395    0.03530938   -0.00655940
     atom   45 type  1   force =    -0.00040418    0.00171036    0.00388802
     atom   46 type  1   force =    -0.00200903   -0.00172874    0.00005857
     atom   47 type  1   force =    -0.00518636    0.00773974   -0.00235005
     atom   48 type  1   force =    -0.00000856    0.02349044    0.00219769
     atom   49 type  1   force =    -0.00652930   -0.03045141   -0.00071898
     atom   50 type  1   force =    -0.00098548   -0.00398255   -0.00087240
     atom   51 type  1   force =    -0.00857292    0.00269271    0.00127368
     atom   52 type  1   force =    -0.00455598   -0.00172799   -0.00568072
     atom   53 type  1   force =    -0.00773710   -0.03087599    0.00557415
     atom   54 type  1   force =     0.00203993   -0.00673277    0.00166506
     atom   55 type  1   force =     0.00511369    0.00434872    0.00102267
     atom   56 type  1   force =     0.00272491   -0.00383991   -0.00108072
     atom   57 type  1   force =    -0.00421985   -0.03035700    0.00279440
     atom   58 type  1   force =     0.00198093   -0.00274499    0.00350409
     atom   59 type  1   force =    -0.00654261    0.00032553    0.00548066
     atom   60 type  1   force =     0.00412127    0.00595859    0.00389935
     atom   61 type  1   force =    -0.00127602   -0.02757788   -0.00367407
     atom   62 type  1   force =     0.00498785   -0.00774502   -0.00067893
     atom   63 type  1   force =    -0.00943132    0.00171124   -0.00915087
     atom   64 type  1   force =     0.00826525   -0.00478412    0.00387923

     Total force =     0.131364     Total SCF correction =     0.001554


     Computing stress (Cartesian axis) and pressure

          total   stress  (Ry/bohr**3)                   (kbar)     P=        0.13
   0.00003923   0.00000215  -0.00002560            5.77        0.32       -3.77
   0.00000215  -0.00004807  -0.00000525            0.32       -7.07       -0.77
  -0.00002560  -0.00000525   0.00001143           -3.77       -0.77        1.68

 
     init_run     :      0.94s CPU      1.37s WALL (       1 calls)
     electrons    :      1.76s CPU      1.82s WALL (       1 calls)
     forces       :      0.07s CPU      0.07s WALL (       1 calls)
     stress       :      0.23s CPU      0.26s WALL (       1 calls)

     Called by init_run:
     wfcinit      :      0.56s CPU      0.87s WALL (       1 calls)
                                        0.87s GPU  (       1 calls)
     potinit      :      0.23s CPU      0.28s WALL (       1 calls)
     hinit0       :      0.11s CPU      0.12s WALL (       1 calls)

     Called by electrons:
     c_bands      :      1.12s CPU      1.14s WALL (      11 calls)
     sum_band     :      0.26s CPU      0.27s WALL (      11 calls)
     v_of_rho     :      0.16s CPU      0.22s WALL (      11 calls)
     mix_rho      :      0.21s CPU      0.23s WALL (      11 calls)

     Called by c_bands:
     init_us_2    :      0.04s CPU      0.04s WALL (      23 calls)
     init_us_2:gp :      0.03s CPU      0.04s WALL (      23 calls)
     regterg      :      1.01s CPU      1.02s WALL (      11 calls)

     Called by *egterg:
     rdiaghg      :      0.32s CPU      0.38s WALL (      66 calls)
                                        0.37s GPU  (      66 calls)
     h_psi        :      1.05s CPU      1.31s WALL (      68 calls)
                                        1.31s GPU  (      68 calls)
     g_psi        :      0.00s CPU      0.00s WALL (      56 calls)
                                        0.00s GPU  (      56 calls)

     Called by h_psi:
     h_psi:calbec :      0.44s CPU      0.72s WALL (      68 calls)
                                        0.72s GPU  (      68 calls)
     vloc_psi     :      0.52s CPU      0.52s WALL (      68 calls)
                                        0.52s GPU  (      68 calls)
     add_vuspsi   :      0.03s CPU      0.06s WALL (      68 calls)
                                        0.06s GPU  (      68 calls)

     General routines
     calbec       :      0.44s CPU      0.69s WALL (      73 calls)
     fft          :      0.18s CPU      0.19s WALL (      95 calls)
                                        0.03s GPU  (      59 calls)
     ffts         :      0.05s CPU      0.05s WALL (      11 calls)
     fftw         :      0.03s CPU      0.58s WALL (    1060 calls)
                                        0.49s GPU  (    1060 calls)
 
     Parallel routines
 
     PWSCF        :      3.03s CPU      3.57s WALL

 
   This run was terminated on:  21:49:25   8Jul2023            

=------------------------------------------------------------------------------=
   JOB DONE.
=------------------------------------------------------------------------------=
