
     Program PWSCF v.7.0 starts on  8Jul2023 at 21:52:51 

     This program is part of the open-source Quantum ESPRESSO suite
     for quantum simulation of materials; please cite
         "P. Giannozzi et al., J. Phys.:Condens. Matter 21 395502 (2009);
         "P. Giannozzi et al., J. Phys.:Condens. Matter 29 465901 (2017);
         "P. Giannozzi et al., J. Chem. Phys. 152 154105 (2020);
          URL http://www.quantum-espresso.org", 
     in publications or presentations arising from this work. More details at
     http://www.quantum-espresso.org/quote

     Parallel version (MPI & OpenMP), running on       1 processor cores
     Number of MPI processes:                 1
     Threads/MPI process:                     1

     MPI processes distributed on     1 nodes
     109293 MiB available memory on the printing compute node when the environment starts
 
     Reading input from pw-si-80.in
Warning: card &CELL ignored
Warning: card / ignored

     Current dimensions of program PWSCF are:
     Max number of different atomic species (ntypx) = 10
     Max number of k-points (npk) =  40000
     Max angular momentum in pseudopotentials (lmaxx) =  4

     IMPORTANT: XC functional enforced from input :
     Exchange-correlation= PBE
                           (   1   4   3   4   0   0   0)
     Any further DFT definition will be discarded
     Please, verify this is what you really want


     gamma-point specific algorithms are used

     Subspace diagonalization in iterative solution of the eigenvalue problem:
     a serial algorithm will be used

 
     G-vector sticks info
     --------------------
     sticks:   dense  smooth     PW     G-vecs:    dense   smooth      PW
     Sum        4071    4071   1023               194769   194769   24285
 
     Using Slab Decomposition
 


     bravais-lattice index     =            0
     lattice parameter (alat)  =      20.8030  a.u.
     unit-cell volume          =    8780.3858 (a.u.)^3
     number of atoms/cell      =           64
     number of atomic types    =            1
     number of electrons       =       256.00
     number of Kohn-Sham states=          128
     kinetic-energy cutoff     =      30.0000  Ry
     charge density cutoff     =     120.0000  Ry
     scf convergence threshold =      1.0E-06
     mixing beta               =       0.5000
     number of iterations used =            8  plain     mixing
     Exchange-correlation= PBE
                           (   1   4   3   4   0   0   0)

     GPU acceleration is ACTIVE.


     celldm(1)=  20.803009  celldm(2)=   0.000000  celldm(3)=   0.000000
     celldm(4)=   0.000000  celldm(5)=   0.000000  celldm(6)=   0.000000

     crystal axes: (cart. coord. in units of alat)
               a(1) = (   1.000000   0.000000   0.000000 )  
               a(2) = (   0.000000   0.985641   0.000000 )  
               a(3) = (   0.000000   0.000000   0.989502 )  

     reciprocal axes: (cart. coord. in units 2 pi/alat)
               b(1) = (  1.000000  0.000000  0.000000 )  
               b(2) = (  0.000000  1.014569  0.000000 )  
               b(3) = (  0.000000  0.000000  1.010610 )  


     PseudoPot. # 1 for Si read from file:
     ./Si_ONCV_PBE-1.0.upf
     MD5 check sum: 2de5a83d12544a9ea852f39b88f19b1f
     Pseudo is Norm-conserving, Zval =  4.0
     Generated using ONCVPSP code by D. R. Hamann
     Using radial grid of  602 points,  4 beta functions with: 
                l(1) =   0
                l(2) =   0
                l(3) =   1
                l(4) =   1

     atomic species   valence    mass     pseudopotential
        Si             4.00    28.08500     Si( 1.00)

     No symmetry found



   Cartesian axes

     site n.     atom                  positions (alat units)
         1           Si  tau(   1) = (   0.3771943   0.3708560   0.1231373  )
         2           Si  tau(   2) = (   0.0002190   0.2472181   0.2463355  )
         3           Si  tau(   3) = (   0.3773699   0.1244049   0.3696900  )
         4           Si  tau(   4) = (   0.0001019  -0.0007191   0.0001407  )
         5           Si  tau(   5) = (   0.1256552   0.3711000   0.3696293  )
         6           Si  tau(   6) = (   0.2520478   0.2474750   0.0002945  )
         7           Si  tau(   7) = (   0.1254875   0.1228413   0.1240993  )
         8           Si  tau(   8) = (   0.2513937   0.0004082   0.2470134  )
         9           Si  tau(   9) = (   0.3775440   0.3717718   0.6168778  )
        10           Si  tau(  10) = (  -0.0008053   0.2470662   0.7402726  )
        11           Si  tau(  11) = (   0.3768095   0.1240154   0.8636799  )
        12           Si  tau(  12) = (  -0.0008338   0.0002689   0.4939050  )
        13           Si  tau(  13) = (   0.1264145   0.3707526   0.8632571  )
        14           Si  tau(  14) = (   0.2522178   0.2472636   0.4934267  )
        15           Si  tau(  15) = (   0.1252065   0.1243408   0.6177581  )
        16           Si  tau(  16) = (   0.2517931   0.0000889   0.7403715  )
        17           Si  tau(  17) = (   0.3763572   0.8646845   0.1234674  )
        18           Si  tau(  18) = (   0.0003157   0.7422158   0.2476630  )
        19           Si  tau(  19) = (   0.3764677   0.6175293   0.3706070  )
        20           Si  tau(  20) = (  -0.0008474   0.4948282  -0.0007961  )
        21           Si  tau(  21) = (   0.1258481   0.8662423   0.3695318  )
        22           Si  tau(  22) = (   0.2512720   0.7415615   0.0002151  )
        23           Si  tau(  23) = (   0.1256548   0.6173709   0.1233733  )
        24           Si  tau(  24) = (   0.2506264   0.4950979   0.2469715  )
        25           Si  tau(  25) = (   0.3771203   0.8649073   0.6174080  )
        26           Si  tau(  26) = (  -0.0002126   0.7410797   0.7406309  )
        27           Si  tau(  27) = (   0.3769663   0.6179307   0.8631819  )
        28           Si  tau(  28) = (   0.0008690   0.4953217   0.4941069  )
        29           Si  tau(  29) = (   0.1248882   0.8656611   0.8646804  )
        30           Si  tau(  30) = (   0.2508072   0.7413088   0.4943303  )
        31           Si  tau(  31) = (   0.1260124   0.6187589   0.6165873  )
        32           Si  tau(  32) = (   0.2518958   0.4939701   0.7403507  )
        33           Si  tau(  33) = (   0.8801980   0.3705466   0.1233415  )
        34           Si  tau(  34) = (   0.5036341   0.2481549   0.2477324  )
        35           Si  tau(  35) = (   0.8796123   0.1229113   0.3705132  )
        36           Si  tau(  36) = (   0.5033948   0.0000135   0.0002949  )
        37           Si  tau(  37) = (   0.6279217   0.3705329   0.3708559  )
        38           Si  tau(  38) = (   0.7549645   0.2468739   0.0006581  )
        39           Si  tau(  39) = (   0.6289967   0.1243125   0.1230792  )
        40           Si  tau(  40) = (   0.7534016   0.0004702   0.2465304  )
        41           Si  tau(  41) = (   0.8790955   0.3715689   0.6164948  )
        42           Si  tau(  42) = (   0.5024309   0.2464450   0.7406488  )
        43           Si  tau(  43) = (   0.8801703   0.1228438   0.8645432  )
        44           Si  tau(  44) = (   0.5022112   0.0005806   0.4933494  )
        45           Si  tau(  45) = (   0.6281916   0.3706179   0.8641780  )
        46           Si  tau(  46) = (   0.7545796   0.2476309   0.4939811  )
        47           Si  tau(  47) = (   0.6286682   0.1231392   0.6175534  )
        48           Si  tau(  48) = (   0.7550325  -0.0000368   0.7401468  )
        49           Si  tau(  49) = (   0.8805855   0.8660935   0.1241656  )
        50           Si  tau(  50) = (   0.5032558   0.7409850   0.2466533  )
        51           Si  tau(  51) = (   0.8801132   0.6180117   0.3704286  )
        52           Si  tau(  52) = (   0.5021500   0.4949719   0.0008804  )
        53           Si  tau(  53) = (   0.6284877   0.8655082   0.3696987  )
        54           Si  tau(  54) = (   0.7549608   0.7426396  -0.0007634  )
        55           Si  tau(  55) = (   0.6292599   0.6181390   0.1229019  )
        56           Si  tau(  56) = (   0.7546993   0.4949760   0.2475673  )
        57           Si  tau(  57) = (   0.8798284   0.8652973   0.6176517  )
        58           Si  tau(  58) = (   0.5020103   0.7417286   0.7405590  )
        59           Si  tau(  59) = (   0.8801472   0.6189838   0.8637008  )
        60           Si  tau(  60) = (   0.5020618   0.4949582   0.4928826  )
        61           Si  tau(  61) = (   0.6289127   0.8661033   0.8642393  )
        62           Si  tau(  62) = (   0.7540379   0.7419072   0.4942873  )
        63           Si  tau(  63) = (   0.6279555   0.6173840   0.6177815  )
        64           Si  tau(  64) = (   0.7536595   0.4951183   0.7400487  )

     number of k points=     1
                       cart. coord. in units 2pi/alat
        k(    1) = (   0.0000000   0.0000000   0.0000000), wk =   2.0000000

     Dense  grid:    97385 G-vectors     FFT dimensions: (  75,  72,  72)

     Estimated max dynamical RAM per process >     283.58 MB

     Initial potential from superposition of free atoms

     starting charge     253.0416, renormalised to     256.0000
     Starting wfcs are random

     total cpu time spent up to now is        1.4 secs

     Self-consistent Calculation

     iteration #  1     ecut=    30.00 Ry     beta= 0.50
     Davidson diagonalization with overlap
     ethr =  1.00E-02,  avg # of iterations = 13.0

     Threshold (ethr) on eigenvalues was too large:
     Diagonalizing with lowered threshold

     Davidson diagonalization with overlap
     ethr =  6.64E-04,  avg # of iterations =  6.0

     total cpu time spent up to now is        1.8 secs

     total energy              =    -503.87761972 Ry
     estimated scf accuracy    <       1.85434513 Ry

     iteration #  2     ecut=    30.00 Ry     beta= 0.50
     Davidson diagonalization with overlap
     ethr =  7.24E-04,  avg # of iterations =  1.0

     total cpu time spent up to now is        1.9 secs

     total energy              =    -503.87481664 Ry
     estimated scf accuracy    <       0.34558754 Ry

     iteration #  3     ecut=    30.00 Ry     beta= 0.50
     Davidson diagonalization with overlap
     ethr =  1.35E-04,  avg # of iterations =  2.0

     total cpu time spent up to now is        2.0 secs

     total energy              =    -503.90698758 Ry
     estimated scf accuracy    <       0.00505492 Ry

     iteration #  4     ecut=    30.00 Ry     beta= 0.50
     Davidson diagonalization with overlap
     ethr =  1.97E-06,  avg # of iterations = 12.0

     total cpu time spent up to now is        2.2 secs

     total energy              =    -503.91386889 Ry
     estimated scf accuracy    <       0.00333789 Ry

     iteration #  5     ecut=    30.00 Ry     beta= 0.50
     Davidson diagonalization with overlap
     ethr =  1.30E-06,  avg # of iterations =  3.0

     total cpu time spent up to now is        2.4 secs

     total energy              =    -503.91468997 Ry
     estimated scf accuracy    <       0.00039102 Ry

     iteration #  6     ecut=    30.00 Ry     beta= 0.50
     Davidson diagonalization with overlap
     ethr =  1.53E-07,  avg # of iterations =  2.0

     total cpu time spent up to now is        2.5 secs

     total energy              =    -503.91466470 Ry
     estimated scf accuracy    <       0.00015133 Ry

     iteration #  7     ecut=    30.00 Ry     beta= 0.50
     Davidson diagonalization with overlap
     ethr =  5.91E-08,  avg # of iterations =  6.0

     total cpu time spent up to now is        2.7 secs

     total energy              =    -503.91471064 Ry
     estimated scf accuracy    <       0.00005914 Ry

     iteration #  8     ecut=    30.00 Ry     beta= 0.50
     Davidson diagonalization with overlap
     ethr =  2.31E-08,  avg # of iterations =  3.0

     total cpu time spent up to now is        2.8 secs

     total energy              =    -503.91471473 Ry
     estimated scf accuracy    <       0.00000631 Ry

     iteration #  9     ecut=    30.00 Ry     beta= 0.50
     Davidson diagonalization with overlap
     ethr =  2.46E-09,  avg # of iterations =  6.0

     total cpu time spent up to now is        3.0 secs

     total energy              =    -503.91471710 Ry
     estimated scf accuracy    <       0.00000408 Ry

     iteration # 10     ecut=    30.00 Ry     beta= 0.50
     Davidson diagonalization with overlap
     ethr =  1.59E-09,  avg # of iterations =  3.0

     total cpu time spent up to now is        3.1 secs

     End of self-consistent calculation

          k = 0.0000 0.0000 0.0000 ( 12143 PWs)   bands (ev):

    -5.7550  -4.7394  -4.7030  -4.6940  -4.6635  -4.6619  -4.6458  -3.8106
    -3.7960  -3.7822  -3.7696  -3.7510  -3.7399  -3.7333  -3.7152  -3.7133
    -3.6838  -3.6707  -3.6658  -3.4859  -3.4527  -3.4333  -3.3973  -1.7402
    -1.7049  -1.6903  -1.6713  -1.6188  -1.5980  -1.5481  -1.5416  -1.5257
    -1.5100  -1.5053  -1.5025  -1.4850  -1.4786  -1.4673  -1.4634  -1.4542
    -1.4353  -0.8338  -0.8077  -0.7853  -0.7424   0.6029   0.6051   0.6421
     0.6462   0.6524   0.6603   0.6660   0.6698   0.6762   0.6833   0.6865
     0.7003   2.2605   2.2725   2.2769   2.2777   2.2945   2.3029   2.3090
     2.3157   2.3199   2.3254   2.3302   2.3319   2.3582   2.3769   2.3793
     2.4019   2.4267   2.4369   2.4430   2.4467   2.4531   2.4591   2.4652
     2.4802   2.5329   2.5565   2.6142   2.6241   2.6452   2.6549   3.2441
     3.2592   3.2845   3.2961   3.3426   3.3754   4.1768   4.2014   4.2143
     4.2150   4.2302   4.2452   4.2507   4.2571   4.2823   4.2881   4.3499
     4.3518   4.6654   4.7136   4.7481   4.7535   4.7747   4.7837   4.7951
     4.7980   4.8190   4.8604   4.8681   4.8854   4.8921   4.8980   4.9163
     4.9250   4.9885   5.0163   5.0315   5.0511   6.0546   6.1273   6.1909

     highest occupied level (ev):     6.1909

!    total energy              =    -503.91471733 Ry
     estimated scf accuracy    <       0.00000031 Ry

     The total energy is the sum of the following terms:
     one-electron contribution =     148.12255831 Ry
     hartree contribution      =      36.60353672 Ry
     xc contribution           =    -153.99691099 Ry
     ewald contribution        =    -534.64390138 Ry

     convergence has been achieved in  10 iterations

     Forces acting on atoms (cartesian axes, Ry/au):

     atom    1 type  1   force =    -0.00065601    0.00255462    0.00613976
     atom    2 type  1   force =     0.01660369   -0.00242032    0.00444334
     atom    3 type  1   force =    -0.00009042   -0.00087617    0.00132626
     atom    4 type  1   force =     0.01944008    0.01601549   -0.00583392
     atom    5 type  1   force =     0.00239750   -0.00156487    0.00419111
     atom    6 type  1   force =    -0.00481258   -0.00288368   -0.00694427
     atom    7 type  1   force =     0.00434495    0.00535112   -0.00648409
     atom    8 type  1   force =     0.00375722    0.00984114   -0.00157260
     atom    9 type  1   force =     0.00070508   -0.00595552   -0.00000223
     atom   10 type  1   force =     0.01876410    0.00417249    0.00309505
     atom   11 type  1   force =     0.00202274   -0.00299101    0.01022769
     atom   12 type  1   force =     0.02506771    0.00950190    0.00043366
     atom   13 type  1   force =    -0.00324280   -0.00046115    0.00966649
     atom   14 type  1   force =    -0.00472862    0.00307353    0.00160482
     atom   15 type  1   force =     0.00487134   -0.00200238   -0.00507234
     atom   16 type  1   force =    -0.00502833    0.01000648    0.00311349
     atom   17 type  1   force =     0.00574136   -0.00805625    0.00023567
     atom   18 type  1   force =     0.01883560   -0.00425224   -0.00467827
     atom   19 type  1   force =     0.00039140    0.00527636   -0.00319350
     atom   20 type  1   force =     0.02342769   -0.00305787   -0.00587302
     atom   21 type  1   force =     0.00139421   -0.01287641    0.00853649
     atom   22 type  1   force =    -0.00161029   -0.00284202   -0.00980901
     atom   23 type  1   force =    -0.00214162    0.00498873   -0.00137304
     atom   24 type  1   force =     0.00452084   -0.00549109   -0.00269976
     atom   25 type  1   force =    -0.00099763   -0.00818678   -0.00338715
     atom   26 type  1   force =     0.02268858    0.00448691   -0.00085202
     atom   27 type  1   force =    -0.00094791    0.00061209    0.01209561
     atom   28 type  1   force =     0.01543560   -0.00453436   -0.00291900
     atom   29 type  1   force =     0.00761688   -0.01402379    0.00152991
     atom   30 type  1   force =     0.00343311    0.00521579   -0.00596976
     atom   31 type  1   force =     0.00161788   -0.00482258    0.00739107
     atom   32 type  1   force =    -0.00248272    0.00388358   -0.00187435
     atom   33 type  1   force =    -0.01981237    0.00391749    0.00041635
     atom   34 type  1   force =    -0.00318408   -0.00296625   -0.00791374
     atom   35 type  1   force =    -0.01931652    0.00739519   -0.00354236
     atom   36 type  1   force =    -0.00531442    0.01201187   -0.00668071
     atom   37 type  1   force =     0.00573139    0.00584827    0.00016881
     atom   38 type  1   force =    -0.00404080    0.00290227   -0.01192933
     atom   39 type  1   force =    -0.00417771    0.00050899    0.00257670
     atom   40 type  1   force =     0.00129431    0.00985129    0.00031673
     atom   41 type  1   force =    -0.01355946    0.00084625    0.00341963
     atom   42 type  1   force =     0.00216773    0.00533022   -0.00096205
     atom   43 type  1   force =    -0.01841010    0.00335102    0.00535971
     atom   44 type  1   force =     0.00243310    0.00713009    0.00055748
     atom   45 type  1   force =     0.00050569    0.00084777    0.00793553
     atom   46 type  1   force =    -0.00572170   -0.00350038   -0.00113366
     atom   47 type  1   force =    -0.00015689    0.00333492   -0.00261470
     atom   48 type  1   force =    -0.00568661    0.01117205    0.00458448
     atom   49 type  1   force =    -0.02353504   -0.01512684   -0.00026256
     atom   50 type  1   force =    -0.00337770    0.00009425    0.00058418
     atom   51 type  1   force =    -0.01818237    0.00362027    0.00342334
     atom   52 type  1   force =     0.00373373   -0.00159070   -0.01260187
     atom   53 type  1   force =    -0.00239369   -0.01163531    0.00361773
     atom   54 type  1   force =    -0.00252642   -0.00140770   -0.00156086
     atom   55 type  1   force =     0.00062206    0.00074462    0.00014186
     atom   56 type  1   force =    -0.00444948   -0.00514796   -0.00331949
     atom   57 type  1   force =    -0.01742776   -0.01373661   -0.00170774
     atom   58 type  1   force =     0.00628592    0.00004981    0.00300557
     atom   59 type  1   force =    -0.02328376   -0.00516789    0.00594694
     atom   60 type  1   force =     0.00368021   -0.00207645    0.00441390
     atom   61 type  1   force =    -0.00232758   -0.01338402    0.00250747
     atom   62 type  1   force =    -0.00338604   -0.00280731   -0.00130055
     atom   63 type  1   force =    -0.00229122    0.00570747   -0.00542475
     atom   64 type  1   force =    -0.00023106   -0.00379848    0.00648589

     Total force =     0.107136     Total SCF correction =     0.001122


     Computing stress (Cartesian axis) and pressure

          total   stress  (Ry/bohr**3)                   (kbar)     P=       16.50
   0.00005726   0.00000890  -0.00000991            8.42        1.31       -1.46
   0.00000890   0.00015102  -0.00002019            1.31       22.22       -2.97
  -0.00000991  -0.00002019   0.00012826           -1.46       -2.97       18.87

 
     init_run     :      1.04s CPU      1.41s WALL (       1 calls)
     electrons    :      1.58s CPU      1.66s WALL (       1 calls)
     forces       :      0.06s CPU      0.06s WALL (       1 calls)
     stress       :      0.24s CPU      0.24s WALL (       1 calls)

     Called by init_run:
     wfcinit      :      0.64s CPU      0.88s WALL (       1 calls)
                                        0.88s GPU  (       1 calls)
     potinit      :      0.25s CPU      0.30s WALL (       1 calls)
     hinit0       :      0.12s CPU      0.13s WALL (       1 calls)

     Called by electrons:
     c_bands      :      0.99s CPU      1.00s WALL (      11 calls)
     sum_band     :      0.23s CPU      0.24s WALL (      11 calls)
     v_of_rho     :      0.15s CPU      0.23s WALL (      11 calls)
     mix_rho      :      0.20s CPU      0.23s WALL (      11 calls)

     Called by c_bands:
     init_us_2    :      0.04s CPU      0.04s WALL (      23 calls)
     init_us_2:gp :      0.04s CPU      0.04s WALL (      23 calls)
     regterg      :      0.87s CPU      0.89s WALL (      11 calls)

     Called by *egterg:
     rdiaghg      :      0.34s CPU      0.38s WALL (      67 calls)
                                        0.37s GPU  (      67 calls)
     h_psi        :      1.00s CPU      1.21s WALL (      69 calls)
                                        1.21s GPU  (      69 calls)
     g_psi        :      0.00s CPU      0.00s WALL (      57 calls)
                                        0.00s GPU  (      57 calls)

     Called by h_psi:
     h_psi:calbec :      0.50s CPU      0.72s WALL (      69 calls)
                                        0.72s GPU  (      69 calls)
     vloc_psi     :      0.41s CPU      0.43s WALL (      69 calls)
                                        0.42s GPU  (      69 calls)
     add_vuspsi   :      0.03s CPU      0.06s WALL (      69 calls)
                                        0.06s GPU  (      69 calls)

     General routines
     calbec       :      0.50s CPU      0.69s WALL (      74 calls)
     fft          :      0.16s CPU      0.17s WALL (      95 calls)
                                        0.03s GPU  (      59 calls)
     ffts         :      0.04s CPU      0.04s WALL (      11 calls)
     fftw         :      0.03s CPU      0.47s WALL (    1052 calls)
                                        0.39s GPU  (    1052 calls)
 
     Parallel routines
 
     PWSCF        :      2.94s CPU      3.42s WALL

 
   This run was terminated on:  21:52:55   8Jul2023            

=------------------------------------------------------------------------------=
   JOB DONE.
=------------------------------------------------------------------------------=
