
     Program PWSCF v.7.0 starts on  8Jul2023 at 21:48:59 

     This program is part of the open-source Quantum ESPRESSO suite
     for quantum simulation of materials; please cite
         "P. Giannozzi et al., J. Phys.:Condens. Matter 21 395502 (2009);
         "P. Giannozzi et al., J. Phys.:Condens. Matter 29 465901 (2017);
         "P. Giannozzi et al., J. Chem. Phys. 152 154105 (2020);
          URL http://www.quantum-espresso.org", 
     in publications or presentations arising from this work. More details at
     http://www.quantum-espresso.org/quote

     Parallel version (MPI & OpenMP), running on       1 processor cores
     Number of MPI processes:                 1
     Threads/MPI process:                     1

     MPI processes distributed on     1 nodes
     109276 MiB available memory on the printing compute node when the environment starts
 
     Reading input from pw-si-28.in
Warning: card &CELL ignored
Warning: card / ignored

     Current dimensions of program PWSCF are:
     Max number of different atomic species (ntypx) = 10
     Max number of k-points (npk) =  40000
     Max angular momentum in pseudopotentials (lmaxx) =  4

     IMPORTANT: XC functional enforced from input :
     Exchange-correlation= PBE
                           (   1   4   3   4   0   0   0)
     Any further DFT definition will be discarded
     Please, verify this is what you really want


     gamma-point specific algorithms are used

     Subspace diagonalization in iterative solution of the eigenvalue problem:
     a serial algorithm will be used

 
     G-vector sticks info
     --------------------
     sticks:   dense  smooth     PW     G-vecs:    dense   smooth      PW
     Sum        4047    4047   1011               194299   194299   24227
 
     Using Slab Decomposition
 


     bravais-lattice index     =            0
     lattice parameter (alat)  =      20.6824  a.u.
     unit-cell volume          =    8756.6743 (a.u.)^3
     number of atoms/cell      =           64
     number of atomic types    =            1
     number of electrons       =       256.00
     number of Kohn-Sham states=          128
     kinetic-energy cutoff     =      30.0000  Ry
     charge density cutoff     =     120.0000  Ry
     scf convergence threshold =      1.0E-06
     mixing beta               =       0.5000
     number of iterations used =            8  plain     mixing
     Exchange-correlation= PBE
                           (   1   4   3   4   0   0   0)

     GPU acceleration is ACTIVE.


     celldm(1)=  20.682369  celldm(2)=   0.000000  celldm(3)=   0.000000
     celldm(4)=   0.000000  celldm(5)=   0.000000  celldm(6)=   0.000000

     crystal axes: (cart. coord. in units of alat)
               a(1) = (   1.000000   0.000000   0.000000 )  
               a(2) = (   0.000000   0.990860   0.000000 )  
               a(3) = (   0.000000   0.000000   0.998909 )  

     reciprocal axes: (cart. coord. in units 2 pi/alat)
               b(1) = (  1.000000  0.000000  0.000000 )  
               b(2) = (  0.000000  1.009224  0.000000 )  
               b(3) = (  0.000000  0.000000  1.001092 )  


     PseudoPot. # 1 for Si read from file:
     ./Si_ONCV_PBE-1.0.upf
     MD5 check sum: 2de5a83d12544a9ea852f39b88f19b1f
     Pseudo is Norm-conserving, Zval =  4.0
     Generated using ONCVPSP code by D. R. Hamann
     Using radial grid of  602 points,  4 beta functions with: 
                l(1) =   0
                l(2) =   0
                l(3) =   1
                l(4) =   1

     atomic species   valence    mass     pseudopotential
        Si             4.00    28.08500     Si( 1.00)

     No symmetry found



   Cartesian axes

     site n.     atom                  positions (alat units)
         1           Si  tau(   1) = (   0.3729686   0.3723090   0.1244794  )
         2           Si  tau(   2) = (   0.0008514   0.2490070   0.2474858  )
         3           Si  tau(   3) = (   0.3744863   0.1238253   0.3731829  )
         4           Si  tau(   4) = (  -0.0004862  -0.0000376   0.0008752  )
         5           Si  tau(   5) = (   0.1238805   0.3734212   0.3731669  )
         6           Si  tau(   6) = (   0.2494815   0.2485313  -0.0001692  )
         7           Si  tau(   7) = (   0.1249549   0.1248514   0.1244497  )
         8           Si  tau(   8) = (   0.2488306  -0.0007527   0.2481238  )
         9           Si  tau(   9) = (   0.3731881   0.3736638   0.6211396  )
        10           Si  tau(  10) = (   0.0006878   0.2483543   0.7450170  )
        11           Si  tau(  11) = (   0.3734427   0.1237795   0.8685061  )
        12           Si  tau(  12) = (  -0.0003716  -0.0003808   0.4965419  )
        13           Si  tau(  13) = (   0.1244645   0.3725636   0.8682056  )
        14           Si  tau(  14) = (   0.2493211   0.2491006   0.4960269  )
        15           Si  tau(  15) = (   0.1253272   0.1251687   0.6204752  )
        16           Si  tau(  16) = (   0.2485336   0.0002871   0.7445453  )
        17           Si  tau(  17) = (   0.3738921   0.8699605   0.1234393  )
        18           Si  tau(  18) = (  -0.0000628   0.7468744   0.2478497  )
        19           Si  tau(  19) = (   0.3732645   0.6221582   0.3720377  )
        20           Si  tau(  20) = (   0.0004721   0.4980156   0.0004734  )
        21           Si  tau(  21) = (   0.1239861   0.8701507   0.3725971  )
        22           Si  tau(  22) = (   0.2487110   0.7468016  -0.0005710  )
        23           Si  tau(  23) = (   0.1238484   0.6219316   0.1235283  )
        24           Si  tau(  24) = (   0.2485567   0.4969678   0.2486358  )
        25           Si  tau(  25) = (   0.3730043   0.8711748   0.6197041  )
        26           Si  tau(  26) = (  -0.0001249   0.7462932   0.7440256  )
        27           Si  tau(  27) = (   0.3734758   0.6217851   0.8679604  )
        28           Si  tau(  28) = (   0.0001005   0.4970478   0.4964852  )
        29           Si  tau(  29) = (   0.1247688   0.8702144   0.8681712  )
        30           Si  tau(  30) = (   0.2495848   0.7452947   0.4962686  )
        31           Si  tau(  31) = (   0.1251820   0.6222768   0.6209359  )
        32           Si  tau(  32) = (   0.2493574   0.4966259   0.7454779  )
        33           Si  tau(  33) = (   0.8723451   0.3729169   0.1241083  )
        34           Si  tau(  34) = (   0.4989214   0.2486137   0.2475031  )
        35           Si  tau(  35) = (   0.8716344   0.1244601   0.3724956  )
        36           Si  tau(  36) = (   0.4989166  -0.0007421   0.0008588  )
        37           Si  tau(  37) = (   0.6228309   0.3725214   0.3728116  )
        38           Si  tau(  38) = (   0.7467382   0.2494657  -0.0001240  )
        39           Si  tau(  39) = (   0.6221160   0.1242031   0.1236688  )
        40           Si  tau(  40) = (   0.7474336  -0.0002000   0.2488048  )
        41           Si  tau(  41) = (   0.8724622   0.3725932   0.6198179  )
        42           Si  tau(  42) = (   0.4987621   0.2494029   0.7450424  )
        43           Si  tau(  43) = (   0.8725628   0.1239460   0.8683902  )
        44           Si  tau(  44) = (   0.4988473   0.0002335   0.4967379  )
        45           Si  tau(  45) = (   0.6233663   0.3722424   0.8687928  )
        46           Si  tau(  46) = (   0.7478564   0.2492710   0.4966447  )
        47           Si  tau(  47) = (   0.6231562   0.1239865   0.6204471  )
        48           Si  tau(  48) = (   0.7474695   0.0000048   0.7451180  )
        49           Si  tau(  49) = (   0.8711334   0.8698246   0.1238772  )
        50           Si  tau(  50) = (   0.4985380   0.7457639   0.2476100  )
        51           Si  tau(  51) = (   0.8720973   0.6221151   0.3728724  )
        52           Si  tau(  52) = (   0.4989006   0.4977359  -0.0001740  )
        53           Si  tau(  53) = (   0.6234789   0.8698402   0.3729902  )
        54           Si  tau(  54) = (   0.7479154   0.7457922  -0.0001271  )
        55           Si  tau(  55) = (   0.6228942   0.6222560   0.1237611  )
        56           Si  tau(  56) = (   0.7469118   0.4977197   0.2480251  )
        57           Si  tau(  57) = (   0.8718391   0.8711252   0.6202852  )
        58           Si  tau(  58) = (   0.4987626   0.7452771   0.7445423  )
        59           Si  tau(  59) = (   0.8712719   0.6217455   0.8680324  )
        60           Si  tau(  60) = (   0.4977588   0.4966672   0.4956330  )
        61           Si  tau(  61) = (   0.6227793   0.8701590   0.8685815  )
        62           Si  tau(  62) = (   0.7477173   0.7457814   0.4958120  )
        63           Si  tau(  63) = (   0.6217271   0.6219463   0.6202427  )
        64           Si  tau(  64) = (   0.7471642   0.4972342   0.7454435  )

     number of k points=     1
                       cart. coord. in units 2pi/alat
        k(    1) = (   0.0000000   0.0000000   0.0000000), wk =   2.0000000

     Dense  grid:    97150 G-vectors     FFT dimensions: (  75,  72,  75)

     Estimated max dynamical RAM per process >     284.01 MB

     Initial potential from superposition of free atoms

     starting charge     253.0416, renormalised to     256.0000
     Starting wfcs are random

     total cpu time spent up to now is        1.4 secs

     Self-consistent Calculation

     iteration #  1     ecut=    30.00 Ry     beta= 0.50
     Davidson diagonalization with overlap
     ethr =  1.00E-02,  avg # of iterations = 12.0

     Threshold (ethr) on eigenvalues was too large:
     Diagonalizing with lowered threshold

     Davidson diagonalization with overlap
     ethr =  6.33E-04,  avg # of iterations =  8.0

     total cpu time spent up to now is        1.8 secs

     total energy              =    -503.86821150 Ry
     estimated scf accuracy    <       1.85976546 Ry

     iteration #  2     ecut=    30.00 Ry     beta= 0.50
     Davidson diagonalization with overlap
     ethr =  7.26E-04,  avg # of iterations =  1.0

     total cpu time spent up to now is        1.9 secs

     total energy              =    -503.86643022 Ry
     estimated scf accuracy    <       0.34658942 Ry

     iteration #  3     ecut=    30.00 Ry     beta= 0.50
     Davidson diagonalization with overlap
     ethr =  1.35E-04,  avg # of iterations =  2.0

     total cpu time spent up to now is        2.1 secs

     total energy              =    -503.89958608 Ry
     estimated scf accuracy    <       0.00478313 Ry

     iteration #  4     ecut=    30.00 Ry     beta= 0.50
     Davidson diagonalization with overlap
     ethr =  1.87E-06,  avg # of iterations =  9.0

     total cpu time spent up to now is        2.3 secs

     total energy              =    -503.90805834 Ry
     estimated scf accuracy    <       0.00116844 Ry

     iteration #  5     ecut=    30.00 Ry     beta= 0.50
     Davidson diagonalization with overlap
     ethr =  4.56E-07,  avg # of iterations =  6.0

     total cpu time spent up to now is        2.4 secs

     total energy              =    -503.90836357 Ry
     estimated scf accuracy    <       0.00023970 Ry

     iteration #  6     ecut=    30.00 Ry     beta= 0.50
     Davidson diagonalization with overlap
     ethr =  9.36E-08,  avg # of iterations =  4.0

     total cpu time spent up to now is        2.6 secs

     total energy              =    -503.90837820 Ry
     estimated scf accuracy    <       0.00004457 Ry

     iteration #  7     ecut=    30.00 Ry     beta= 0.50
     Davidson diagonalization with overlap
     ethr =  1.74E-08,  avg # of iterations =  7.0

     total cpu time spent up to now is        2.8 secs

     total energy              =    -503.90839288 Ry
     estimated scf accuracy    <       0.00002507 Ry

     iteration #  8     ecut=    30.00 Ry     beta= 0.50
     Davidson diagonalization with overlap
     ethr =  9.79E-09,  avg # of iterations =  2.0

     total cpu time spent up to now is        2.9 secs

     total energy              =    -503.90839326 Ry
     estimated scf accuracy    <       0.00000506 Ry

     iteration #  9     ecut=    30.00 Ry     beta= 0.50
     Davidson diagonalization with overlap
     ethr =  1.98E-09,  avg # of iterations =  8.0

     total cpu time spent up to now is        3.1 secs

     total energy              =    -503.90839548 Ry
     estimated scf accuracy    <       0.00000299 Ry

     iteration # 10     ecut=    30.00 Ry     beta= 0.50
     Davidson diagonalization with overlap
     ethr =  1.17E-09,  avg # of iterations =  2.0

     total cpu time spent up to now is        3.2 secs

     total energy              =    -503.90839499 Ry
     estimated scf accuracy    <       0.00000145 Ry

     iteration # 11     ecut=    30.00 Ry     beta= 0.50
     Davidson diagonalization with overlap
     ethr =  5.67E-10,  avg # of iterations =  3.0

     total cpu time spent up to now is        3.3 secs

     End of self-consistent calculation

          k = 0.0000 0.0000 0.0000 ( 12114 PWs)   bands (ev):

    -5.7468  -4.7172  -4.7070  -4.6876  -4.6536  -4.6387  -4.6382  -3.7947
    -3.7753  -3.7707  -3.7485  -3.7369  -3.7283  -3.7258  -3.7180  -3.7063
    -3.6687  -3.6562  -3.6442  -3.4777  -3.4491  -3.4318  -3.3407  -1.7095
    -1.7017  -1.6522  -1.6359  -1.6270  -1.5944  -1.5320  -1.5273  -1.5185
    -1.5067  -1.4780  -1.4760  -1.4668  -1.4577  -1.4454  -1.4300  -1.4174
    -1.4086  -0.8358  -0.7859  -0.7690  -0.7213   0.6356   0.6398   0.6399
     0.6531   0.6705   0.6863   0.6899   0.6946   0.7016   0.7131   0.7175
     0.7237   2.2841   2.2953   2.2967   2.3021   2.3073   2.3122   2.3201
     2.3271   2.3284   2.3298   2.3385   2.3446   2.3950   2.4058   2.4186
     2.4277   2.4322   2.4370   2.4403   2.4522   2.4606   2.4657   2.4732
     2.4912   2.6002   2.6163   2.6291   2.6451   2.6689   2.6933   3.2632
     3.2865   3.3221   3.3383   3.3495   3.3650   4.1954   4.2318   4.2407
     4.2501   4.2581   4.2652   4.2703   4.2798   4.3019   4.3093   4.3567
     4.3695   4.6847   4.7821   4.7942   4.8009   4.8206   4.8271   4.8281
     4.8297   4.8440   4.8489   4.8614   4.8931   4.9052   4.9174   4.9319
     4.9426   4.9628   4.9852   5.0622   5.1762   6.1031   6.1196   6.2362

     highest occupied level (ev):     6.2362

!    total energy              =    -503.90839512 Ry
     estimated scf accuracy    <       0.00000052 Ry

     The total energy is the sum of the following terms:
     one-electron contribution =     148.70954408 Ry
     hartree contribution      =      36.55833599 Ry
     xc contribution           =    -154.08961331 Ry
     ewald contribution        =    -535.08666188 Ry

     convergence has been achieved in  11 iterations

     Forces acting on atoms (cartesian axes, Ry/au):

     atom    1 type  1   force =     0.00503465    0.00608907   -0.00426729
     atom    2 type  1   force =    -0.01594651   -0.00088535    0.00574220
     atom    3 type  1   force =    -0.00227185    0.00345821   -0.00793870
     atom    4 type  1   force =    -0.00654373    0.01040607   -0.02209523
     atom    5 type  1   force =     0.00160498   -0.00244143   -0.00486516
     atom    6 type  1   force =    -0.00221526   -0.00100167   -0.02093783
     atom    7 type  1   force =    -0.00058296   -0.00263468   -0.00455622
     atom    8 type  1   force =     0.00328229    0.01557273    0.00238178
     atom    9 type  1   force =     0.00310822   -0.00362014   -0.00255263
     atom   10 type  1   force =    -0.01474370    0.00066250   -0.00266981
     atom   11 type  1   force =     0.00483946    0.00226177    0.02138797
     atom   12 type  1   force =    -0.00845786    0.01886841    0.00140590
     atom   13 type  1   force =    -0.00061705    0.00251477    0.02646750
     atom   14 type  1   force =     0.00163482   -0.00000091    0.00225205
     atom   15 type  1   force =    -0.00513030   -0.00253086   -0.00215287
     atom   16 type  1   force =     0.00212137    0.01223848    0.00019648
     atom   17 type  1   force =    -0.00220102   -0.01255534    0.00214397
     atom   18 type  1   force =    -0.01310491   -0.00537600    0.00092173
     atom   19 type  1   force =     0.00340128   -0.00504994   -0.00305066
     atom   20 type  1   force =    -0.01543095   -0.00502397   -0.02565661
     atom   21 type  1   force =     0.00197162   -0.01385023   -0.00040530
     atom   22 type  1   force =     0.00162085   -0.00627898   -0.01969901
     atom   23 type  1   force =     0.00491206    0.00179287    0.00253029
     atom   24 type  1   force =    -0.00138218    0.00296689   -0.00268719
     atom   25 type  1   force =     0.00456929   -0.01757817    0.00603512
     atom   26 type  1   force =    -0.01250266   -0.00087406    0.00310939
     atom   27 type  1   force =     0.00167246   -0.00076327    0.02494983
     atom   28 type  1   force =    -0.01126859    0.00582401    0.00359051
     atom   29 type  1   force =    -0.00737392   -0.00916740    0.02328531
     atom   30 type  1   force =    -0.00341235    0.00446804   -0.00008210
     atom   31 type  1   force =    -0.00244479   -0.00678806   -0.00003189
     atom   32 type  1   force =    -0.00380412    0.00478862   -0.00158046
     atom   33 type  1   force =     0.00894934    0.00325784   -0.00197186
     atom   34 type  1   force =    -0.00475244   -0.00137648    0.00505211
     atom   35 type  1   force =     0.01556499    0.00263889   -0.00296270
     atom   36 type  1   force =    -0.00329071    0.01441044   -0.02747653
     atom   37 type  1   force =     0.00128141    0.00211887   -0.00499579
     atom   38 type  1   force =     0.00699140   -0.00667200   -0.01884711
     atom   39 type  1   force =     0.00769090    0.00092725    0.00070845
     atom   40 type  1   force =    -0.00138974    0.01435746   -0.00374318
     atom   41 type  1   force =     0.01034085    0.00372067    0.00879565
     atom   42 type  1   force =    -0.00337242   -0.00551143   -0.00145291
     atom   43 type  1   force =     0.00758579    0.00494845    0.02354322
     atom   44 type  1   force =     0.00026310    0.00966147   -0.00032955
     atom   45 type  1   force =    -0.00235932    0.00624699    0.02109812
     atom   46 type  1   force =    -0.00114565   -0.00466768   -0.00040042
     atom   47 type  1   force =     0.00088312    0.00616084    0.00327066
     atom   48 type  1   force =     0.00094677    0.01283397   -0.00003535
     atom   49 type  1   force =     0.01373433   -0.00859328    0.00012294
     atom   50 type  1   force =    -0.00101090    0.00162961    0.00319337
     atom   51 type  1   force =     0.01271586   -0.00375573   -0.00620221
     atom   52 type  1   force =    -0.00541390   -0.00377289   -0.01842971
     atom   53 type  1   force =    -0.00438275   -0.01136130   -0.00430609
     atom   54 type  1   force =    -0.00236594   -0.00066400   -0.02216129
     atom   55 type  1   force =     0.00149674   -0.00302260   -0.00217207
     atom   56 type  1   force =     0.00397293   -0.00149625    0.00248723
     atom   57 type  1   force =     0.00956405   -0.01684002    0.00086680
     atom   58 type  1   force =    -0.00716015    0.00693553   -0.00104291
     atom   59 type  1   force =     0.01678132    0.00055412    0.02202975
     atom   60 type  1   force =    -0.00106414    0.00381380    0.00341622
     atom   61 type  1   force =     0.00076938   -0.01378241    0.02206566
     atom   62 type  1   force =     0.00016495   -0.00082016    0.00779814
     atom   63 type  1   force =     0.00732566   -0.00582414   -0.00158823
     atom   64 type  1   force =     0.00034653   -0.00154779   -0.00750151

     Total force =     0.125117     Total SCF correction =     0.001459


     Computing stress (Cartesian axis) and pressure

          total   stress  (Ry/bohr**3)                   (kbar)     P=       19.24
   0.00011035   0.00002133  -0.00001437           16.23        3.14       -2.11
   0.00002133   0.00016688   0.00001687            3.14       24.55        2.48
  -0.00001437   0.00001687   0.00011511           -2.11        2.48       16.93

 
     init_run     :      0.95s CPU      1.39s WALL (       1 calls)
     electrons    :      1.86s CPU      1.93s WALL (       1 calls)
     forces       :      0.07s CPU      0.07s WALL (       1 calls)
     stress       :      0.23s CPU      0.23s WALL (       1 calls)

     Called by init_run:
     wfcinit      :      0.58s CPU      0.90s WALL (       1 calls)
                                        0.90s GPU  (       1 calls)
     potinit      :      0.22s CPU      0.27s WALL (       1 calls)
     hinit0       :      0.12s CPU      0.12s WALL (       1 calls)

     Called by electrons:
     c_bands      :      1.17s CPU      1.19s WALL (      12 calls)
     sum_band     :      0.26s CPU      0.28s WALL (      12 calls)
     v_of_rho     :      0.17s CPU      0.24s WALL (      12 calls)
     mix_rho      :      0.25s CPU      0.25s WALL (      12 calls)

     Called by c_bands:
     init_us_2    :      0.04s CPU      0.04s WALL (      25 calls)
     init_us_2:gp :      0.03s CPU      0.04s WALL (      25 calls)
     regterg      :      1.05s CPU      1.07s WALL (      12 calls)

     Called by *egterg:
     rdiaghg      :      0.35s CPU      0.40s WALL (      75 calls)
                                        0.39s GPU  (      75 calls)
     h_psi        :      1.10s CPU      1.37s WALL (      77 calls)
                                        1.37s GPU  (      77 calls)
     g_psi        :      0.00s CPU      0.00s WALL (      64 calls)
                                        0.00s GPU  (      64 calls)

     Called by h_psi:
     h_psi:calbec :      0.45s CPU      0.74s WALL (      77 calls)
                                        0.74s GPU  (      77 calls)
     vloc_psi     :      0.55s CPU      0.56s WALL (      77 calls)
                                        0.56s GPU  (      77 calls)
     add_vuspsi   :      0.03s CPU      0.06s WALL (      77 calls)
                                        0.06s GPU  (      77 calls)

     General routines
     calbec       :      0.45s CPU      0.71s WALL (      82 calls)
     fft          :      0.18s CPU      0.19s WALL (     103 calls)
                                        0.03s GPU  (      64 calls)
     ffts         :      0.05s CPU      0.05s WALL (      12 calls)
     fftw         :      0.03s CPU      0.62s WALL (    1148 calls)
                                        0.53s GPU  (    1148 calls)
 
     Parallel routines
 
     PWSCF        :      3.12s CPU      3.66s WALL

 
   This run was terminated on:  21:49: 3   8Jul2023            

=------------------------------------------------------------------------------=
   JOB DONE.
=------------------------------------------------------------------------------=
