
     Program PWSCF v.7.0 starts on  8Jul2023 at 21:49:35 

     This program is part of the open-source Quantum ESPRESSO suite
     for quantum simulation of materials; please cite
         "P. Giannozzi et al., J. Phys.:Condens. Matter 21 395502 (2009);
         "P. Giannozzi et al., J. Phys.:Condens. Matter 29 465901 (2017);
         "P. Giannozzi et al., J. Chem. Phys. 152 154105 (2020);
          URL http://www.quantum-espresso.org", 
     in publications or presentations arising from this work. More details at
     http://www.quantum-espresso.org/quote

     Parallel version (MPI & OpenMP), running on       1 processor cores
     Number of MPI processes:                 1
     Threads/MPI process:                     1

     MPI processes distributed on     1 nodes
     109280 MiB available memory on the printing compute node when the environment starts
 
     Reading input from pw-si-36.in
Warning: card &CELL ignored
Warning: card / ignored

     Current dimensions of program PWSCF are:
     Max number of different atomic species (ntypx) = 10
     Max number of k-points (npk) =  40000
     Max angular momentum in pseudopotentials (lmaxx) =  4

     IMPORTANT: XC functional enforced from input :
     Exchange-correlation= PBE
                           (   1   4   3   4   0   0   0)
     Any further DFT definition will be discarded
     Please, verify this is what you really want


     gamma-point specific algorithms are used

     Subspace diagonalization in iterative solution of the eigenvalue problem:
     a serial algorithm will be used

 
     G-vector sticks info
     --------------------
     sticks:   dense  smooth     PW     G-vecs:    dense   smooth      PW
     Sum        4059    4059   1015               195827   195827   24435
 
     Using Slab Decomposition
 


     bravais-lattice index     =            0
     lattice parameter (alat)  =      20.7062  a.u.
     unit-cell volume          =    8823.9417 (a.u.)^3
     number of atoms/cell      =           64
     number of atomic types    =            1
     number of electrons       =       256.00
     number of Kohn-Sham states=          128
     kinetic-energy cutoff     =      30.0000  Ry
     charge density cutoff     =     120.0000  Ry
     scf convergence threshold =      1.0E-06
     mixing beta               =       0.5000
     number of iterations used =            8  plain     mixing
     Exchange-correlation= PBE
                           (   1   4   3   4   0   0   0)

     GPU acceleration is ACTIVE.


     celldm(1)=  20.706160  celldm(2)=   0.000000  celldm(3)=   0.000000
     celldm(4)=   0.000000  celldm(5)=   0.000000  celldm(6)=   0.000000

     crystal axes: (cart. coord. in units of alat)
               a(1) = (   1.000000   0.000000   0.000000 )  
               a(2) = (   0.000000   0.993203   0.000000 )  
               a(3) = (   0.000000   0.000000   1.000751 )  

     reciprocal axes: (cart. coord. in units 2 pi/alat)
               b(1) = (  1.000000  0.000000  0.000000 )  
               b(2) = (  0.000000  1.006844  0.000000 )  
               b(3) = (  0.000000  0.000000  0.999250 )  


     PseudoPot. # 1 for Si read from file:
     ./Si_ONCV_PBE-1.0.upf
     MD5 check sum: 2de5a83d12544a9ea852f39b88f19b1f
     Pseudo is Norm-conserving, Zval =  4.0
     Generated using ONCVPSP code by D. R. Hamann
     Using radial grid of  602 points,  4 beta functions with: 
                l(1) =   0
                l(2) =   0
                l(3) =   1
                l(4) =   1

     atomic species   valence    mass     pseudopotential
        Si             4.00    28.08500     Si( 1.00)

     No symmetry found



   Cartesian axes

     site n.     atom                  positions (alat units)
         1           Si  tau(   1) = (   0.3736732   0.3707045   0.1247526  )
         2           Si  tau(   2) = (   0.0002115   0.2471046   0.2487207  )
         3           Si  tau(   3) = (   0.3752773   0.1225519   0.3727122  )
         4           Si  tau(   4) = (   0.0008214  -0.0000515   0.0004142  )
         5           Si  tau(   5) = (   0.1254868   0.3708282   0.3716554  )
         6           Si  tau(   6) = (   0.2490963   0.2465316  -0.0006888  )
         7           Si  tau(   7) = (   0.1249092   0.1225056   0.1235000  )
         8           Si  tau(   8) = (   0.2487149  -0.0003545   0.2486930  )
         9           Si  tau(   9) = (   0.3737219   0.3701921   0.6193138  )
        10           Si  tau(  10) = (   0.0002331   0.2472234   0.7435758  )
        11           Si  tau(  11) = (   0.3746193   0.1232455   0.8679570  )
        12           Si  tau(  12) = (   0.0007686   0.0003637   0.4965675  )
        13           Si  tau(  13) = (   0.1239298   0.3705633   0.8684644  )
        14           Si  tau(  14) = (   0.2493825   0.2473766   0.4968979  )
        15           Si  tau(  15) = (   0.1247230   0.1228363   0.6192943  )
        16           Si  tau(  16) = (   0.2494300   0.0001083   0.7433222  )
        17           Si  tau(  17) = (   0.3745296   0.8626156   0.1238956  )
        18           Si  tau(  18) = (   0.0007866   0.7399066   0.2480763  )
        19           Si  tau(  19) = (   0.3736659   0.6171573   0.3712835  )
        20           Si  tau(  20) = (  -0.0000963   0.4940426  -0.0000549  )
        21           Si  tau(  21) = (   0.1253032   0.8631940   0.3719594  )
        22           Si  tau(  22) = (   0.2504632   0.7401948   0.0004283  )
        23           Si  tau(  23) = (   0.1246888   0.6164539   0.1244717  )
        24           Si  tau(  24) = (   0.2500774   0.4928872   0.2485795  )
        25           Si  tau(  25) = (   0.3750633   0.8633328   0.6200287  )
        26           Si  tau(  26) = (  -0.0008474   0.7401084   0.7432339  )
        27           Si  tau(  27) = (   0.3743685   0.6172744   0.8675823  )
        28           Si  tau(  28) = (   0.0000872   0.4938321   0.4965364  )
        29           Si  tau(  29) = (   0.1251440   0.8624583   0.8683694  )
        30           Si  tau(  30) = (   0.2493462   0.7399198   0.4960061  )
        31           Si  tau(  31) = (   0.1253586   0.6168436   0.6201884  )
        32           Si  tau(  32) = (   0.2496162   0.4927426   0.7438826  )
        33           Si  tau(  33) = (   0.8737079   0.3703934   0.1235424  )
        34           Si  tau(  34) = (   0.4997535   0.2459232   0.2483569  )
        35           Si  tau(  35) = (   0.8734523   0.1241576   0.3717300  )
        36           Si  tau(  36) = (   0.4987625  -0.0002612   0.0008614  )
        37           Si  tau(  37) = (   0.6248356   0.3704631   0.3715249  )
        38           Si  tau(  38) = (   0.7483909   0.2463301  -0.0000819  )
        39           Si  tau(  39) = (   0.6231019   0.1236711   0.1240740  )
        40           Si  tau(  40) = (   0.7494420   0.0001781   0.2478487  )
        41           Si  tau(  41) = (   0.8727166   0.3698813   0.6196351  )
        42           Si  tau(  42) = (   0.4984315   0.2465260   0.7436068  )
        43           Si  tau(  43) = (   0.8726588   0.1233468   0.8683166  )
        44           Si  tau(  44) = (   0.4994788  -0.0001869   0.4954817  )
        45           Si  tau(  45) = (   0.6246509   0.3706019   0.8679405  )
        46           Si  tau(  46) = (   0.7490311   0.2464600   0.4958300  )
        47           Si  tau(  47) = (   0.6242962   0.1235024   0.6196448  )
        48           Si  tau(  48) = (   0.7478863  -0.0003287   0.7443423  )
        49           Si  tau(  49) = (   0.8735596   0.8636012   0.1238440  )
        50           Si  tau(  50) = (   0.4990622   0.7402949   0.2489206  )
        51           Si  tau(  51) = (   0.8729123   0.6162964   0.3719782  )
        52           Si  tau(  52) = (   0.4998124   0.4930637  -0.0001695  )
        53           Si  tau(  53) = (   0.6233538   0.8635152   0.3719143  )
        54           Si  tau(  54) = (   0.7485292   0.7402347   0.0000014  )
        55           Si  tau(  55) = (   0.6241261   0.6159136   0.1242877  )
        56           Si  tau(  56) = (   0.7493529   0.4941455   0.2483533  )
        57           Si  tau(  57) = (   0.8742662   0.8639684   0.6196641  )
        58           Si  tau(  58) = (   0.4998445   0.7403662   0.7446851  )
        59           Si  tau(  59) = (   0.8728877   0.6158091   0.8678559  )
        60           Si  tau(  60) = (   0.4986036   0.4939256   0.4953217  )
        61           Si  tau(  61) = (   0.6235690   0.8640120   0.8684852  )
        62           Si  tau(  62) = (   0.7496241   0.7394510   0.4953975  )
        63           Si  tau(  63) = (   0.6235726   0.6172937   0.6208790  )
        64           Si  tau(  64) = (   0.7484642   0.4935435   0.7439552  )

     number of k points=     1
                       cart. coord. in units 2pi/alat
        k(    1) = (   0.0000000   0.0000000   0.0000000), wk =   2.0000000

     Dense  grid:    97914 G-vectors     FFT dimensions: (  75,  72,  75)

     Estimated max dynamical RAM per process >     285.96 MB

     Initial potential from superposition of free atoms

     starting charge     253.0416, renormalised to     256.0000
     Starting wfcs are random

     total cpu time spent up to now is        1.4 secs

     Self-consistent Calculation

     iteration #  1     ecut=    30.00 Ry     beta= 0.50
     Davidson diagonalization with overlap
     ethr =  1.00E-02,  avg # of iterations = 12.0

     Threshold (ethr) on eigenvalues was too large:
     Diagonalizing with lowered threshold

     Davidson diagonalization with overlap
     ethr =  6.08E-04,  avg # of iterations = 12.0

     total cpu time spent up to now is        1.8 secs

     total energy              =    -503.87452972 Ry
     estimated scf accuracy    <       1.83995012 Ry

     iteration #  2     ecut=    30.00 Ry     beta= 0.50
     Davidson diagonalization with overlap
     ethr =  7.19E-04,  avg # of iterations =  1.0

     total cpu time spent up to now is        2.0 secs

     total energy              =    -503.86890173 Ry
     estimated scf accuracy    <       0.34296298 Ry

     iteration #  3     ecut=    30.00 Ry     beta= 0.50
     Davidson diagonalization with overlap
     ethr =  1.34E-04,  avg # of iterations =  2.0

     total cpu time spent up to now is        2.1 secs

     total energy              =    -503.89646716 Ry
     estimated scf accuracy    <       0.00462389 Ry

     iteration #  4     ecut=    30.00 Ry     beta= 0.50
     Davidson diagonalization with overlap
     ethr =  1.81E-06,  avg # of iterations =  9.0

     total cpu time spent up to now is        2.3 secs

     total energy              =    -503.90383881 Ry
     estimated scf accuracy    <       0.00142277 Ry

     iteration #  5     ecut=    30.00 Ry     beta= 0.50
     Davidson diagonalization with overlap
     ethr =  5.56E-07,  avg # of iterations =  3.0

     total cpu time spent up to now is        2.4 secs

     total energy              =    -503.90415292 Ry
     estimated scf accuracy    <       0.00016605 Ry

     iteration #  6     ecut=    30.00 Ry     beta= 0.50
     Davidson diagonalization with overlap
     ethr =  6.49E-08,  avg # of iterations =  6.0

     total cpu time spent up to now is        2.6 secs

     total energy              =    -503.90416336 Ry
     estimated scf accuracy    <       0.00004450 Ry

     iteration #  7     ecut=    30.00 Ry     beta= 0.50
     Davidson diagonalization with overlap
     ethr =  1.74E-08,  avg # of iterations =  4.0

     total cpu time spent up to now is        2.8 secs

     total energy              =    -503.90417487 Ry
     estimated scf accuracy    <       0.00001535 Ry

     iteration #  8     ecut=    30.00 Ry     beta= 0.50
     Davidson diagonalization with overlap
     ethr =  6.00E-09,  avg # of iterations =  3.0

     total cpu time spent up to now is        2.9 secs

     total energy              =    -503.90417686 Ry
     estimated scf accuracy    <       0.00000161 Ry

     iteration #  9     ecut=    30.00 Ry     beta= 0.50
     Davidson diagonalization with overlap
     ethr =  6.29E-10,  avg # of iterations =  7.0

     total cpu time spent up to now is        3.1 secs

     total energy              =    -503.90417743 Ry
     estimated scf accuracy    <       0.00000168 Ry

     iteration # 10     ecut=    30.00 Ry     beta= 0.50
     Davidson diagonalization with overlap
     ethr =  6.29E-10,  avg # of iterations =  2.0

     total cpu time spent up to now is        3.2 secs

     End of self-consistent calculation

          k = 0.0000 0.0000 0.0000 ( 12218 PWs)   bands (ev):

    -5.7817  -4.7705  -4.7460  -4.7369  -4.7073  -4.6627  -4.6534  -3.8508
    -3.8495  -3.8320  -3.8128  -3.7935  -3.7756  -3.7534  -3.7429  -3.7326
    -3.7139  -3.7011  -3.6579  -3.5474  -3.4920  -3.4633  -3.3413  -1.7712
    -1.7550  -1.7419  -1.7085  -1.6770  -1.6595  -1.6023  -1.5924  -1.5784
    -1.5730  -1.5670  -1.5612  -1.5113  -1.4928  -1.4843  -1.4690  -1.4457
    -1.4329  -0.9114  -0.8151  -0.7911  -0.7746   0.5464   0.5687   0.5864
     0.5903   0.5931   0.6064   0.6200   0.6219   0.6430   0.6535   0.6623
     0.6705   2.2280   2.2336   2.2364   2.2425   2.2430   2.2447   2.2520
     2.2557   2.2750   2.2765   2.2870   2.2934   2.3352   2.3609   2.3649
     2.3710   2.3819   2.3928   2.3948   2.4020   2.4132   2.4240   2.4310
     2.4723   2.5283   2.5615   2.5636   2.5875   2.5983   2.6210   3.2069
     3.2250   3.2517   3.2736   3.2976   3.3023   4.1337   4.1436   4.1553
     4.1707   4.1954   4.2073   4.2087   4.2332   4.2467   4.2593   4.2671
     4.3461   4.6669   4.6795   4.7107   4.7176   4.7247   4.7336   4.7414
     4.7540   4.7731   4.7763   4.7907   4.7996   4.8217   4.8293   4.8498
     4.8722   4.8837   4.9507   5.0300   5.1781   5.9831   6.0821   6.1614

     highest occupied level (ev):     6.1614

!    total energy              =    -503.90417733 Ry
     estimated scf accuracy    <       0.00000029 Ry

     The total energy is the sum of the following terms:
     one-electron contribution =     146.61288009 Ry
     hartree contribution      =      36.89278080 Ry
     xc contribution           =    -153.83459336 Ry
     ewald contribution        =    -533.57524486 Ry

     convergence has been achieved in  10 iterations

     Forces acting on atoms (cartesian axes, Ry/au):

     atom    1 type  1   force =     0.00565998   -0.00810449   -0.00797166
     atom    2 type  1   force =    -0.00341983   -0.00082638   -0.00755468
     atom    3 type  1   force =    -0.00766205    0.00292649   -0.00192278
     atom    4 type  1   force =    -0.01185130   -0.02158527   -0.03095465
     atom    5 type  1   force =    -0.00454380   -0.00336518    0.00570055
     atom    6 type  1   force =     0.00204798    0.00150782   -0.02364054
     atom    7 type  1   force =    -0.00089010    0.00439063    0.00286756
     atom    8 type  1   force =     0.00739748   -0.01969353   -0.00406823
     atom    9 type  1   force =     0.00461983    0.00065202    0.00355051
     atom   10 type  1   force =    -0.00986719   -0.00450610    0.00444245
     atom   11 type  1   force =    -0.00250705   -0.00333707    0.02722301
     atom   12 type  1   force =    -0.00998572   -0.02139433   -0.00795854
     atom   13 type  1   force =     0.00218636   -0.00148805    0.02510340
     atom   14 type  1   force =     0.00090305   -0.00604614   -0.00785121
     atom   15 type  1   force =     0.00086140    0.00394204    0.00619974
     atom   16 type  1   force =     0.00118799   -0.02319813    0.00651766
     atom   17 type  1   force =    -0.00093443    0.02521477    0.00287557
     atom   18 type  1   force =    -0.01206502    0.00271851    0.00034109
     atom   19 type  1   force =     0.00187254    0.00000791    0.00410515
     atom   20 type  1   force =    -0.00598364   -0.00134644   -0.02656249
     atom   21 type  1   force =    -0.00430522    0.02103860    0.00285849
     atom   22 type  1   force =    -0.00498626   -0.00285928   -0.02913793
     atom   23 type  1   force =     0.00428771    0.00087611   -0.00461789
     atom   24 type  1   force =    -0.00375266    0.00558422   -0.00443743
     atom   25 type  1   force =    -0.00175038    0.02007574   -0.00041522
     atom   26 type  1   force =    -0.00152838   -0.00038132    0.00823896
     atom   27 type  1   force =     0.00119808   -0.00391392    0.02972719
     atom   28 type  1   force =    -0.00596582   -0.00169767   -0.00224550
     atom   29 type  1   force =    -0.00015532    0.02204806    0.02299204
     atom   30 type  1   force =     0.00319286    0.00347743    0.00136552
     atom   31 type  1   force =    -0.00370440    0.00022850    0.00164108
     atom   32 type  1   force =    -0.00057678    0.00357648    0.00531934
     atom   33 type  1   force =     0.00493316   -0.00211559   -0.00009701
     atom   34 type  1   force =    -0.00497737    0.00604765   -0.00028204
     atom   35 type  1   force =     0.00907473   -0.00686250    0.00276940
     atom   36 type  1   force =    -0.00193034   -0.01756008   -0.02900662
     atom   37 type  1   force =    -0.00340083   -0.00154608    0.00250919
     atom   38 type  1   force =     0.00073113    0.00224857   -0.02621143
     atom   39 type  1   force =     0.00600447   -0.00551604   -0.00273961
     atom   40 type  1   force =    -0.00454776   -0.02019329   -0.00119450
     atom   41 type  1   force =     0.00991976    0.00143855    0.00197785
     atom   42 type  1   force =     0.00510484    0.00315905    0.00358175
     atom   43 type  1   force =     0.01130466   -0.00192154    0.02488198
     atom   44 type  1   force =     0.00182193   -0.02128198    0.00563038
     atom   45 type  1   force =    -0.00494097   -0.00637086    0.02574259
     atom   46 type  1   force =    -0.00208190    0.00171696   -0.00057332
     atom   47 type  1   force =    -0.00281765   -0.00315381    0.00162798
     atom   48 type  1   force =     0.00416217   -0.01906935    0.00061526
     atom   49 type  1   force =     0.00873148    0.01837282   -0.00153566
     atom   50 type  1   force =     0.00146171   -0.00123900   -0.00747704
     atom   51 type  1   force =     0.01475975    0.00308603   -0.00027680
     atom   52 type  1   force =    -0.00447009    0.00150415   -0.02666445
     atom   53 type  1   force =     0.00775200    0.02006653    0.00088072
     atom   54 type  1   force =     0.00001117    0.00010116   -0.02712726
     atom   55 type  1   force =    -0.00140899    0.00671719   -0.00209927
     atom   56 type  1   force =    -0.00047922   -0.00529552   -0.00527509
     atom   57 type  1   force =    -0.00022737    0.01954483    0.00063934
     atom   58 type  1   force =    -0.00350319    0.00381392    0.00169425
     atom   59 type  1   force =     0.00745763    0.00757868    0.02680879
     atom   60 type  1   force =     0.00298106   -0.00001492    0.00198671
     atom   61 type  1   force =     0.00258958    0.01745921    0.02793740
     atom   62 type  1   force =    -0.00560476    0.00733361    0.00457972
     atom   63 type  1   force =     0.00224382   -0.00125917   -0.00574787
     atom   64 type  1   force =     0.00036550   -0.00131117    0.00071410

     Total force =     0.147683     Total SCF correction =     0.001084


     Computing stress (Cartesian axis) and pressure

          total   stress  (Ry/bohr**3)                   (kbar)     P=       12.28
   0.00007383   0.00002953   0.00001989           10.86        4.34        2.93
   0.00002953   0.00011309   0.00000924            4.34       16.64        1.36
   0.00001989   0.00000924   0.00006350            2.93        1.36        9.34

 
     init_run     :      0.92s CPU      1.38s WALL (       1 calls)
     electrons    :      1.73s CPU      1.81s WALL (       1 calls)
     forces       :      0.06s CPU      0.07s WALL (       1 calls)
     stress       :      0.23s CPU      0.26s WALL (       1 calls)

     Called by init_run:
     wfcinit      :      0.57s CPU      0.89s WALL (       1 calls)
                                        0.89s GPU  (       1 calls)
     potinit      :      0.21s CPU      0.27s WALL (       1 calls)
     hinit0       :      0.11s CPU      0.12s WALL (       1 calls)

     Called by electrons:
     c_bands      :      1.12s CPU      1.13s WALL (      11 calls)
     sum_band     :      0.24s CPU      0.26s WALL (      11 calls)
     v_of_rho     :      0.15s CPU      0.23s WALL (      11 calls)
     mix_rho      :      0.21s CPU      0.23s WALL (      11 calls)

     Called by c_bands:
     init_us_2    :      0.04s CPU      0.04s WALL (      23 calls)
     init_us_2:gp :      0.04s CPU      0.04s WALL (      23 calls)
     regterg      :      1.01s CPU      1.02s WALL (      11 calls)

     Called by *egterg:
     rdiaghg      :      0.33s CPU      0.39s WALL (      71 calls)
                                        0.38s GPU  (      71 calls)
     h_psi        :      1.06s CPU      1.33s WALL (      73 calls)
                                        1.33s GPU  (      73 calls)
     g_psi        :      0.00s CPU      0.00s WALL (      61 calls)
                                        0.00s GPU  (      61 calls)

     Called by h_psi:
     h_psi:calbec :      0.44s CPU      0.73s WALL (      73 calls)
                                        0.73s GPU  (      73 calls)
     vloc_psi     :      0.52s CPU      0.53s WALL (      73 calls)
                                        0.53s GPU  (      73 calls)
     add_vuspsi   :      0.03s CPU      0.06s WALL (      73 calls)
                                        0.06s GPU  (      73 calls)

     General routines
     calbec       :      0.44s CPU      0.70s WALL (      78 calls)
     fft          :      0.16s CPU      0.18s WALL (      95 calls)
                                        0.03s GPU  (      59 calls)
     ffts         :      0.04s CPU      0.04s WALL (      11 calls)
     fftw         :      0.05s CPU      0.59s WALL (    1062 calls)
                                        0.50s GPU  (    1062 calls)
 
     Parallel routines
 
     PWSCF        :      2.98s CPU      3.56s WALL

 
   This run was terminated on:  21:49:38   8Jul2023            

=------------------------------------------------------------------------------=
   JOB DONE.
=------------------------------------------------------------------------------=
