
     Program PWSCF v.7.0 starts on  8Jul2023 at 21:52: 2 

     This program is part of the open-source Quantum ESPRESSO suite
     for quantum simulation of materials; please cite
         "P. Giannozzi et al., J. Phys.:Condens. Matter 21 395502 (2009);
         "P. Giannozzi et al., J. Phys.:Condens. Matter 29 465901 (2017);
         "P. Giannozzi et al., J. Chem. Phys. 152 154105 (2020);
          URL http://www.quantum-espresso.org", 
     in publications or presentations arising from this work. More details at
     http://www.quantum-espresso.org/quote

     Parallel version (MPI & OpenMP), running on       1 processor cores
     Number of MPI processes:                 1
     Threads/MPI process:                     1

     MPI processes distributed on     1 nodes
     109289 MiB available memory on the printing compute node when the environment starts
 
     Reading input from pw-si-69.in
Warning: card &CELL ignored
Warning: card / ignored

     Current dimensions of program PWSCF are:
     Max number of different atomic species (ntypx) = 10
     Max number of k-points (npk) =  40000
     Max angular momentum in pseudopotentials (lmaxx) =  4

     IMPORTANT: XC functional enforced from input :
     Exchange-correlation= PBE
                           (   1   4   3   4   0   0   0)
     Any further DFT definition will be discarded
     Please, verify this is what you really want


     gamma-point specific algorithms are used

     Subspace diagonalization in iterative solution of the eigenvalue problem:
     a serial algorithm will be used

 
     G-vector sticks info
     --------------------
     sticks:   dense  smooth     PW     G-vecs:    dense   smooth      PW
     Sum        4075    4075   1023               194525   194525   24273
 
     Using Slab Decomposition
 


     bravais-lattice index     =            0
     lattice parameter (alat)  =      20.5227  a.u.
     unit-cell volume          =    8767.0131 (a.u.)^3
     number of atoms/cell      =           64
     number of atomic types    =            1
     number of electrons       =       256.00
     number of Kohn-Sham states=          128
     kinetic-energy cutoff     =      30.0000  Ry
     charge density cutoff     =     120.0000  Ry
     scf convergence threshold =      1.0E-06
     mixing beta               =       0.5000
     number of iterations used =            8  plain     mixing
     Exchange-correlation= PBE
                           (   1   4   3   4   0   0   0)

     GPU acceleration is ACTIVE.


     celldm(1)=  20.522662  celldm(2)=   0.000000  celldm(3)=   0.000000
     celldm(4)=   0.000000  celldm(5)=   0.000000  celldm(6)=   0.000000

     crystal axes: (cart. coord. in units of alat)
               a(1) = (   1.000000   0.000000   0.000000 )  
               a(2) = (   0.000000   1.014788   0.000000 )  
               a(3) = (   0.000000   0.000000   0.999483 )  

     reciprocal axes: (cart. coord. in units 2 pi/alat)
               b(1) = (  1.000000  0.000000  0.000000 )  
               b(2) = (  0.000000  0.985428  0.000000 )  
               b(3) = (  0.000000  0.000000  1.000517 )  


     PseudoPot. # 1 for Si read from file:
     ./Si_ONCV_PBE-1.0.upf
     MD5 check sum: 2de5a83d12544a9ea852f39b88f19b1f
     Pseudo is Norm-conserving, Zval =  4.0
     Generated using ONCVPSP code by D. R. Hamann
     Using radial grid of  602 points,  4 beta functions with: 
                l(1) =   0
                l(2) =   0
                l(3) =   1
                l(4) =   1

     atomic species   valence    mass     pseudopotential
        Si             4.00    28.08500     Si( 1.00)

     No symmetry found



   Cartesian axes

     site n.     atom                  positions (alat units)
         1           Si  tau(   1) = (   0.3753201   0.3799781   0.1247985  )
         2           Si  tau(   2) = (  -0.0004634   0.2532944   0.2485114  )
         3           Si  tau(   3) = (   0.3747297   0.1266510   0.3714673  )
         4           Si  tau(   4) = (   0.0003570  -0.0003019  -0.0007194  )
         5           Si  tau(   5) = (   0.1253589   0.3808789   0.3727578  )
         6           Si  tau(   6) = (   0.2492396   0.2534867  -0.0007207  )
         7           Si  tau(   7) = (   0.1242691   0.1268555   0.1237231  )
         8           Si  tau(   8) = (   0.2494936   0.0009095   0.2480347  )
         9           Si  tau(   9) = (   0.3745817   0.3799127   0.6204758  )
        10           Si  tau(  10) = (   0.0008927   0.2540243   0.7444896  )
        11           Si  tau(  11) = (   0.3750464   0.1260146   0.8685409  )
        12           Si  tau(  12) = (   0.0004487  -0.0003681   0.4953994  )
        13           Si  tau(  13) = (   0.1254845   0.3810802   0.8687012  )
        14           Si  tau(  14) = (   0.2496900   0.2542050   0.4957906  )
        15           Si  tau(  15) = (   0.1245316   0.1263993   0.6201964  )
        16           Si  tau(  16) = (   0.2501274   0.0004096   0.7434224  )
        17           Si  tau(  17) = (   0.3743761   0.8883002   0.1239732  )
        18           Si  tau(  18) = (   0.0005636   0.7610374   0.2479684  )
        19           Si  tau(  19) = (   0.3744288   0.6336607   0.3726087  )
        20           Si  tau(  20) = (  -0.0008878   0.5065690  -0.0000700  )
        21           Si  tau(  21) = (   0.1253700   0.8882787   0.3724901  )
        22           Si  tau(  22) = (   0.2494773   0.7614066   0.0004440  )
        23           Si  tau(  23) = (   0.1256106   0.6342943   0.1245177  )
        24           Si  tau(  24) = (   0.2507910   0.5074011   0.2489035  )
        25           Si  tau(  25) = (   0.3752056   0.8887268   0.6198170  )
        26           Si  tau(  26) = (   0.0003331   0.7609670   0.7443878  )
        27           Si  tau(  27) = (   0.3749013   0.6343519   0.8684488  )
        28           Si  tau(  28) = (  -0.0006061   0.5066996   0.4970388  )
        29           Si  tau(  29) = (   0.1255616   0.8876179   0.8676833  )
        30           Si  tau(  30) = (   0.2503883   0.7616534   0.4964751  )
        31           Si  tau(  31) = (   0.1257780   0.6342642   0.6207823  )
        32           Si  tau(  32) = (   0.2494955   0.5070591   0.7451542  )
        33           Si  tau(  33) = (   0.8761011   0.3800982   0.1241852  )
        34           Si  tau(  34) = (   0.4996341   0.2544300   0.2484218  )
        35           Si  tau(  35) = (   0.8747837   0.1263717   0.3726612  )
        36           Si  tau(  36) = (   0.5000238   0.0002054  -0.0007358  )
        37           Si  tau(  37) = (   0.6259293   0.3802806   0.3723126  )
        38           Si  tau(  38) = (   0.7496708   0.2540508  -0.0006654  )
        39           Si  tau(  39) = (   0.6248803   0.1266196   0.1235758  )
        40           Si  tau(  40) = (   0.7510071   0.0003253   0.2480958  )
        41           Si  tau(  41) = (   0.8757524   0.3797851   0.6203722  )
        42           Si  tau(  42) = (   0.5003546   0.2529521   0.7435855  )
        43           Si  tau(  43) = (   0.8750129   0.1260972   0.8687606  )
        44           Si  tau(  44) = (   0.5010362   0.0004525   0.4955650  )
        45           Si  tau(  45) = (   0.6261996   0.3800768   0.8674972  )
        46           Si  tau(  46) = (   0.7504235   0.2535209   0.4965598  )
        47           Si  tau(  47) = (   0.6257591   0.1259773   0.6199331  )
        48           Si  tau(  48) = (   0.7498829   0.0005596   0.7442223  )
        49           Si  tau(  49) = (   0.8747024   0.8873050   0.1237423  )
        50           Si  tau(  50) = (   0.4997381   0.7617404   0.2480747  )
        51           Si  tau(  51) = (   0.8746009   0.6338718   0.3724188  )
        52           Si  tau(  52) = (   0.4995372   0.5069441  -0.0007351  )
        53           Si  tau(  53) = (   0.6255349   0.8877010   0.3713139  )
        54           Si  tau(  54) = (   0.7505517   0.7608824  -0.0005841  )
        55           Si  tau(  55) = (   0.6247592   0.6348976   0.1243077  )
        56           Si  tau(  56) = (   0.7502831   0.5075477   0.2482120  )
        57           Si  tau(  57) = (   0.8753931   0.8875145   0.6202821  )
        58           Si  tau(  58) = (   0.5001759   0.7610061   0.7447528  )
        59           Si  tau(  59) = (   0.8747339   0.6345061   0.8692354  )
        60           Si  tau(  60) = (   0.4994982   0.5071792   0.4963253  )
        61           Si  tau(  61) = (   0.6259561   0.8884978   0.8674781  )
        62           Si  tau(  62) = (   0.7504107   0.7617041   0.4954616  )
        63           Si  tau(  63) = (   0.6261275   0.6344249   0.6211361  )
        64           Si  tau(  64) = (   0.7511493   0.5081348   0.7447625  )

     number of k points=     1
                       cart. coord. in units 2pi/alat
        k(    1) = (   0.0000000   0.0000000   0.0000000), wk =   2.0000000

     Dense  grid:    97263 G-vectors     FFT dimensions: (  72,  75,  72)

     Estimated max dynamical RAM per process >     283.19 MB

     Initial potential from superposition of free atoms

     starting charge     253.0416, renormalised to     256.0000
     Starting wfcs are random

     total cpu time spent up to now is        1.4 secs

     Self-consistent Calculation

     iteration #  1     ecut=    30.00 Ry     beta= 0.50
     Davidson diagonalization with overlap
     ethr =  1.00E-02,  avg # of iterations = 11.0

     Threshold (ethr) on eigenvalues was too large:
     Diagonalizing with lowered threshold

     Davidson diagonalization with overlap
     ethr =  6.08E-04,  avg # of iterations = 13.0

     total cpu time spent up to now is        1.8 secs

     total energy              =    -503.88528541 Ry
     estimated scf accuracy    <       1.85819589 Ry

     iteration #  2     ecut=    30.00 Ry     beta= 0.50
     Davidson diagonalization with overlap
     ethr =  7.26E-04,  avg # of iterations =  1.0

     total cpu time spent up to now is        1.9 secs

     total energy              =    -503.87889475 Ry
     estimated scf accuracy    <       0.34555324 Ry

     iteration #  3     ecut=    30.00 Ry     beta= 0.50
     Davidson diagonalization with overlap
     ethr =  1.35E-04,  avg # of iterations =  2.0

     total cpu time spent up to now is        2.0 secs

     total energy              =    -503.90686500 Ry
     estimated scf accuracy    <       0.00464029 Ry

     iteration #  4     ecut=    30.00 Ry     beta= 0.50
     Davidson diagonalization with overlap
     ethr =  1.81E-06,  avg # of iterations =  9.0

     total cpu time spent up to now is        2.2 secs

     total energy              =    -503.91457514 Ry
     estimated scf accuracy    <       0.00056652 Ry

     iteration #  5     ecut=    30.00 Ry     beta= 0.50
     Davidson diagonalization with overlap
     ethr =  2.21E-07,  avg # of iterations =  5.0

     total cpu time spent up to now is        2.4 secs

     total energy              =    -503.91470898 Ry
     estimated scf accuracy    <       0.00011542 Ry

     iteration #  6     ecut=    30.00 Ry     beta= 0.50
     Davidson diagonalization with overlap
     ethr =  4.51E-08,  avg # of iterations =  4.0

     total cpu time spent up to now is        2.5 secs

     total energy              =    -503.91472643 Ry
     estimated scf accuracy    <       0.00002055 Ry

     iteration #  7     ecut=    30.00 Ry     beta= 0.50
     Davidson diagonalization with overlap
     ethr =  8.03E-09,  avg # of iterations =  5.0

     total cpu time spent up to now is        2.7 secs

     total energy              =    -503.91473034 Ry
     estimated scf accuracy    <       0.00000592 Ry

     iteration #  8     ecut=    30.00 Ry     beta= 0.50
     Davidson diagonalization with overlap
     ethr =  2.31E-09,  avg # of iterations =  4.0

     total cpu time spent up to now is        2.8 secs

     total energy              =    -503.91473096 Ry
     estimated scf accuracy    <       0.00000114 Ry

     iteration #  9     ecut=    30.00 Ry     beta= 0.50
     Davidson diagonalization with overlap
     ethr =  4.44E-10,  avg # of iterations =  5.0

     total cpu time spent up to now is        3.0 secs

     End of self-consistent calculation

          k = 0.0000 0.0000 0.0000 ( 12137 PWs)   bands (ev):

    -5.7484  -4.7065  -4.7007  -4.6947  -4.6787  -4.6616  -4.6193  -3.7782
    -3.7692  -3.7628  -3.7595  -3.7475  -3.7390  -3.7368  -3.7177  -3.6905
    -3.6853  -3.6781  -3.6584  -3.4824  -3.4568  -3.4394  -3.3595  -1.7312
    -1.7112  -1.6446  -1.6359  -1.6322  -1.5901  -1.5417  -1.5288  -1.5205
    -1.5132  -1.4912  -1.4784  -1.4741  -1.4730  -1.4537  -1.4478  -1.4392
    -1.4269  -0.8323  -0.7792  -0.7703  -0.7526   0.6235   0.6279   0.6362
     0.6489   0.6590   0.6730   0.6776   0.6824   0.6870   0.7000   0.7178
     0.7196   2.2876   2.2937   2.2956   2.2975   2.3081   2.3129   2.3157
     2.3175   2.3230   2.3281   2.3300   2.3362   2.3732   2.3783   2.4117
     2.4152   2.4295   2.4422   2.4450   2.4499   2.4534   2.4587   2.4634
     2.4840   2.5714   2.5748   2.6319   2.6530   2.6592   2.6638   3.2568
     3.2761   3.2769   3.2819   3.3885   3.3978   4.1824   4.1863   4.2179
     4.2230   4.2553   4.2585   4.2662   4.3165   4.3221   4.3239   4.3294
     4.3363   4.7366   4.7426   4.7542   4.7588   4.7663   4.7737   4.7982
     4.8175   4.8363   4.8558   4.8685   4.8784   4.8877   4.9171   4.9309
     4.9655   4.9971   5.0231   5.0384   5.1181   6.0570   6.1643   6.1982

     highest occupied level (ev):     6.1982

!    total energy              =    -503.91473115 Ry
     estimated scf accuracy    <       0.00000034 Ry

     The total energy is the sum of the following terms:
     one-electron contribution =     148.50835723 Ry
     hartree contribution      =      36.55289476 Ry
     xc contribution           =    -154.04658376 Ry
     ewald contribution        =    -534.92939938 Ry

     convergence has been achieved in   9 iterations

     Forces acting on atoms (cartesian axes, Ry/au):

     atom    1 type  1   force =    -0.00408477    0.00248870   -0.00852866
     atom    2 type  1   force =     0.00415919    0.00087406    0.00145360
     atom    3 type  1   force =     0.00170190    0.00397507    0.00377014
     atom    4 type  1   force =    -0.00168542   -0.00351813   -0.01945482
     atom    5 type  1   force =    -0.00448695   -0.00024311   -0.00404160
     atom    6 type  1   force =     0.00492105    0.00046265   -0.01651403
     atom    7 type  1   force =     0.00009741    0.00108500   -0.00243400
     atom    8 type  1   force =     0.00044373   -0.00366564   -0.00240519
     atom    9 type  1   force =     0.00070567    0.00227596    0.00107986
     atom   10 type  1   force =    -0.00286660   -0.00449974    0.00514010
     atom   11 type  1   force =    -0.00041794    0.00510861    0.01853638
     atom   12 type  1   force =    -0.00298405   -0.00015054    0.00588886
     atom   13 type  1   force =    -0.00452197   -0.00238615    0.02190101
     atom   14 type  1   force =     0.00096006   -0.00628567    0.00299647
     atom   15 type  1   force =     0.00210493    0.00412487   -0.00265015
     atom   16 type  1   force =     0.00001091   -0.00237403    0.00494875
     atom   17 type  1   force =     0.00194375    0.00200255   -0.00231123
     atom   18 type  1   force =    -0.00261439   -0.00069632    0.00254014
     atom   19 type  1   force =     0.00519959    0.00622977   -0.00058912
     atom   20 type  1   force =     0.00753464    0.00613841   -0.01919241
     atom   21 type  1   force =     0.00052588   -0.00226356   -0.00436580
     atom   22 type  1   force =     0.00262891   -0.00159073   -0.02455488
     atom   23 type  1   force =    -0.00343741   -0.00479276   -0.00448791
     atom   24 type  1   force =    -0.00369020   -0.00161583   -0.00448637
     atom   25 type  1   force =     0.00449168   -0.00215129    0.00164319
     atom   26 type  1   force =    -0.00103565   -0.00200907    0.00332651
     atom   27 type  1   force =    -0.00152044    0.00021237    0.02337034
     atom   28 type  1   force =     0.00478168    0.00502291   -0.00209763
     atom   29 type  1   force =    -0.00026560    0.00253789    0.02250838
     atom   30 type  1   force =    -0.00088831   -0.00212545    0.00021749
     atom   31 type  1   force =    -0.00405694   -0.00128234   -0.00201196
     atom   32 type  1   force =     0.00569540    0.00223281   -0.00133712
     atom   33 type  1   force =    -0.00879187   -0.00034990   -0.00165586
     atom   34 type  1   force =     0.00572898   -0.00642164   -0.00097766
     atom   35 type  1   force =     0.00213634    0.00241777   -0.00106611
     atom   36 type  1   force =     0.00085574   -0.00440404   -0.01897325
     atom   37 type  1   force =    -0.00411359    0.00232678    0.00046019
     atom   38 type  1   force =     0.00386662   -0.00274779   -0.01763327
     atom   39 type  1   force =    -0.00026628    0.00360424    0.00053455
     atom   40 type  1   force =    -0.00475136   -0.00204182   -0.00397832
     atom   41 type  1   force =    -0.00333252    0.00239843    0.00421204
     atom   42 type  1   force =    -0.00008611   -0.00017920    0.00499667
     atom   43 type  1   force =     0.00172742    0.00619947    0.01924794
     atom   44 type  1   force =    -0.00321918   -0.00327471   -0.00152690
     atom   45 type  1   force =    -0.00584708    0.00303918    0.02156588
     atom   46 type  1   force =    -0.00049505   -0.00082704    0.00034145
     atom   47 type  1   force =    -0.00252658    0.00506672    0.00000508
     atom   48 type  1   force =     0.00585515   -0.00391084   -0.00008406
     atom   49 type  1   force =     0.00511760    0.00274369   -0.00226210
     atom   50 type  1   force =    -0.00282068   -0.00357196    0.00041386
     atom   51 type  1   force =     0.00491668    0.00161097   -0.00104614
     atom   52 type  1   force =     0.00448737    0.00018989   -0.01849713
     atom   53 type  1   force =    -0.00052345    0.00358856    0.00073082
     atom   54 type  1   force =    -0.00552145    0.00197378   -0.01886431
     atom   55 type  1   force =    -0.00074593   -0.00397029   -0.00601164
     atom   56 type  1   force =    -0.00023841   -0.00112609   -0.00369638
     atom   57 type  1   force =    -0.00061657    0.00358196   -0.00026698
     atom   58 type  1   force =    -0.00016036    0.00234850   -0.00063851
     atom   59 type  1   force =     0.00502966   -0.00053464    0.01887254
     atom   60 type  1   force =     0.00591793    0.00014951    0.00383217
     atom   61 type  1   force =    -0.00395468   -0.00275902    0.02577980
     atom   62 type  1   force =    -0.00186970   -0.00330395    0.00440297
     atom   63 type  1   force =    -0.00478257    0.00007017   -0.00563577
     atom   64 type  1   force =    -0.00032581   -0.00500795   -0.00043990

     Total force =     0.093374     Total SCF correction =     0.001101


     Computing stress (Cartesian axis) and pressure

          total   stress  (Ry/bohr**3)                   (kbar)     P=       17.87
   0.00015312   0.00001850   0.00000659           22.52        2.72        0.97
   0.00001850   0.00005881  -0.00000307            2.72        8.65       -0.45
   0.00000659  -0.00000307   0.00015254            0.97       -0.45       22.44

 
     init_run     :      0.93s CPU      1.38s WALL (       1 calls)
     electrons    :      1.50s CPU      1.54s WALL (       1 calls)
     forces       :      0.06s CPU      0.07s WALL (       1 calls)
     stress       :      0.24s CPU      0.26s WALL (       1 calls)

     Called by init_run:
     wfcinit      :      0.56s CPU      0.88s WALL (       1 calls)
                                        0.88s GPU  (       1 calls)
     potinit      :      0.22s CPU      0.28s WALL (       1 calls)
     hinit0       :      0.12s CPU      0.12s WALL (       1 calls)

     Called by electrons:
     c_bands      :      0.94s CPU      0.96s WALL (      10 calls)
     sum_band     :      0.21s CPU      0.22s WALL (      10 calls)
     v_of_rho     :      0.15s CPU      0.21s WALL (      10 calls)
     mix_rho      :      0.19s CPU      0.19s WALL (      10 calls)

     Called by c_bands:
     init_us_2    :      0.03s CPU      0.04s WALL (      21 calls)
     init_us_2:gp :      0.03s CPU      0.03s WALL (      21 calls)
     regterg      :      0.84s CPU      0.86s WALL (      10 calls)

     Called by *egterg:
     rdiaghg      :      0.33s CPU      0.38s WALL (      68 calls)
                                        0.37s GPU  (      68 calls)
     h_psi        :      0.90s CPU      1.18s WALL (      70 calls)
                                        1.18s GPU  (      70 calls)
     g_psi        :      0.00s CPU      0.00s WALL (      59 calls)
                                        0.00s GPU  (      59 calls)

     Called by h_psi:
     h_psi:calbec :      0.43s CPU      0.71s WALL (      70 calls)
                                        0.71s GPU  (      70 calls)
     vloc_psi     :      0.38s CPU      0.40s WALL (      70 calls)
                                        0.40s GPU  (      70 calls)
     add_vuspsi   :      0.03s CPU      0.06s WALL (      70 calls)
                                        0.06s GPU  (      70 calls)

     General routines
     calbec       :      0.42s CPU      0.69s WALL (      75 calls)
     fft          :      0.15s CPU      0.17s WALL (      87 calls)
                                        0.04s GPU  (      54 calls)
     ffts         :      0.04s CPU      0.04s WALL (      10 calls)
     fftw         :      0.03s CPU      0.44s WALL (     978 calls)
                                        0.36s GPU  (     978 calls)
 
     Parallel routines
 
     PWSCF        :      2.75s CPU      3.30s WALL

 
   This run was terminated on:  21:52: 5   8Jul2023            

=------------------------------------------------------------------------------=
   JOB DONE.
=------------------------------------------------------------------------------=
