
     Program PWSCF v.7.0 starts on  8Jul2023 at 21:50: 6 

     This program is part of the open-source Quantum ESPRESSO suite
     for quantum simulation of materials; please cite
         "P. Giannozzi et al., J. Phys.:Condens. Matter 21 395502 (2009);
         "P. Giannozzi et al., J. Phys.:Condens. Matter 29 465901 (2017);
         "P. Giannozzi et al., J. Chem. Phys. 152 154105 (2020);
          URL http://www.quantum-espresso.org", 
     in publications or presentations arising from this work. More details at
     http://www.quantum-espresso.org/quote

     Parallel version (MPI & OpenMP), running on       1 processor cores
     Number of MPI processes:                 1
     Threads/MPI process:                     1

     MPI processes distributed on     1 nodes
     109302 MiB available memory on the printing compute node when the environment starts
 
     Reading input from pw-si-43.in
Warning: card &CELL ignored
Warning: card / ignored

     Current dimensions of program PWSCF are:
     Max number of different atomic species (ntypx) = 10
     Max number of k-points (npk) =  40000
     Max angular momentum in pseudopotentials (lmaxx) =  4

     IMPORTANT: XC functional enforced from input :
     Exchange-correlation= PBE
                           (   1   4   3   4   0   0   0)
     Any further DFT definition will be discarded
     Please, verify this is what you really want


     gamma-point specific algorithms are used

     Subspace diagonalization in iterative solution of the eigenvalue problem:
     a serial algorithm will be used

 
     G-vector sticks info
     --------------------
     sticks:   dense  smooth     PW     G-vecs:    dense   smooth      PW
     Sum        4043    4043   1007               192913   192913   24041
 
     Using Slab Decomposition
 


     bravais-lattice index     =            0
     lattice parameter (alat)  =      20.5158  a.u.
     unit-cell volume          =    8691.6664 (a.u.)^3
     number of atoms/cell      =           64
     number of atomic types    =            1
     number of electrons       =       256.00
     number of Kohn-Sham states=          128
     kinetic-energy cutoff     =      30.0000  Ry
     charge density cutoff     =     120.0000  Ry
     scf convergence threshold =      1.0E-06
     mixing beta               =       0.5000
     number of iterations used =            8  plain     mixing
     Exchange-correlation= PBE
                           (   1   4   3   4   0   0   0)

     GPU acceleration is ACTIVE.


     celldm(1)=  20.515767  celldm(2)=   0.000000  celldm(3)=   0.000000
     celldm(4)=   0.000000  celldm(5)=   0.000000  celldm(6)=   0.000000

     crystal axes: (cart. coord. in units of alat)
               a(1) = (   1.000000   0.000000   0.000000 )  
               a(2) = (   0.000000   1.007541   0.000000 )  
               a(3) = (   0.000000   0.000000   0.999026 )  

     reciprocal axes: (cart. coord. in units 2 pi/alat)
               b(1) = (  1.000000  0.000000  0.000000 )  
               b(2) = (  0.000000  0.992515  0.000000 )  
               b(3) = (  0.000000  0.000000  1.000975 )  


     PseudoPot. # 1 for Si read from file:
     ./Si_ONCV_PBE-1.0.upf
     MD5 check sum: 2de5a83d12544a9ea852f39b88f19b1f
     Pseudo is Norm-conserving, Zval =  4.0
     Generated using ONCVPSP code by D. R. Hamann
     Using radial grid of  602 points,  4 beta functions with: 
                l(1) =   0
                l(2) =   0
                l(3) =   1
                l(4) =   1

     atomic species   valence    mass     pseudopotential
        Si             4.00    28.08500     Si( 1.00)

     No symmetry found



   Cartesian axes

     site n.     atom                  positions (alat units)
         1           Si  tau(   1) = (   0.3760550   0.3801965   0.1258961  )
         2           Si  tau(   2) = (  -0.0007802   0.2542126   0.2517043  )
         3           Si  tau(   3) = (   0.3759825   0.1266654   0.3775388  )
         4           Si  tau(   4) = (  -0.0004838  -0.0009233   0.0008286  )
         5           Si  tau(   5) = (   0.1257963   0.3799088   0.3784866  )
         6           Si  tau(   6) = (   0.2506036   0.2540603   0.0007405  )
         7           Si  tau(   7) = (   0.1248569   0.1261106   0.1251456  )
         8           Si  tau(   8) = (   0.2505758   0.0000296   0.2519939  )
         9           Si  tau(   9) = (   0.3763555   0.3810195   0.6291466  )
        10           Si  tau(  10) = (  -0.0006723   0.2539351   0.7554708  )
        11           Si  tau(  11) = (   0.3762890   0.1274789   0.8807585  )
        12           Si  tau(  12) = (   0.0002283  -0.0001349   0.5046605  )
        13           Si  tau(  13) = (   0.1254739   0.3805398   0.8807233  )
        14           Si  tau(  14) = (   0.2506386   0.2529636   0.5041719  )
        15           Si  tau(  15) = (   0.1253397   0.1270526   0.6303039  )
        16           Si  tau(  16) = (   0.2512550  -0.0003029   0.7560569  )
        17           Si  tau(  17) = (   0.3759549   0.8880159   0.1259619  )
        18           Si  tau(  18) = (  -0.0006949   0.7601725   0.2512993  )
        19           Si  tau(  19) = (   0.3767845   0.6329262   0.3778380  )
        20           Si  tau(  20) = (  -0.0005029   0.5071585  -0.0006405  )
        21           Si  tau(  21) = (   0.1255926   0.8876645   0.3778696  )
        22           Si  tau(  22) = (   0.2501326   0.7603374   0.0005839  )
        23           Si  tau(  23) = (   0.1250096   0.6332405   0.1257997  )
        24           Si  tau(  24) = (   0.2508418   0.5075276   0.2510400  )
        25           Si  tau(  25) = (   0.3753481   0.8876967   0.6288848  )
        26           Si  tau(  26) = (  -0.0008445   0.7614913   0.7551384  )
        27           Si  tau(  27) = (   0.3765426   0.6329906   0.8823946  )
        28           Si  tau(  28) = (   0.0005658   0.5067418   0.5036426  )
        29           Si  tau(  29) = (   0.1260849   0.8867756   0.8814356  )
        30           Si  tau(  30) = (   0.2504145   0.7601103   0.5035456  )
        31           Si  tau(  31) = (   0.1247030   0.6336097   0.6296913  )
        32           Si  tau(  32) = (   0.2501158   0.5064766   0.7548562  )
        33           Si  tau(  33) = (   0.8785708   0.3806044   0.1266730  )
        34           Si  tau(  34) = (   0.5016442   0.2542012   0.2516202  )
        35           Si  tau(  35) = (   0.8786571   0.1260703   0.3778863  )
        36           Si  tau(  36) = (   0.5012341  -0.0007327  -0.0007010  )
        37           Si  tau(  37) = (   0.6270387   0.3808061   0.3772172  )
        38           Si  tau(  38) = (   0.7526334   0.2541140   0.0002153  )
        39           Si  tau(  39) = (   0.6262597   0.1267887   0.1250745  )
        40           Si  tau(  40) = (   0.7524622   0.0007346   0.2526166  )
        41           Si  tau(  41) = (   0.8771262   0.3807708   0.6295972  )
        42           Si  tau(  42) = (   0.5015351   0.2531317   0.7560058  )
        43           Si  tau(  43) = (   0.8776922   0.1270365   0.8820071  )
        44           Si  tau(  44) = (   0.5014107  -0.0001648   0.5042284  )
        45           Si  tau(  45) = (   0.6268632   0.3796711   0.8817581  )
        46           Si  tau(  46) = (   0.7521138   0.2528843   0.5046356  )
        47           Si  tau(  47) = (   0.6274390   0.1271308   0.6298454  )
        48           Si  tau(  48) = (   0.7531781   0.0003839   0.7563440  )
        49           Si  tau(  49) = (   0.8780475   0.8869720   0.1265936  )
        50           Si  tau(  50) = (   0.5019523   0.7600625   0.2519477  )
        51           Si  tau(  51) = (   0.8783401   0.6340048   0.3773265  )
        52           Si  tau(  52) = (   0.5019246   0.5070381  -0.0007187  )
        53           Si  tau(  53) = (   0.6274128   0.8880404   0.3780956  )
        54           Si  tau(  54) = (   0.7520648   0.7602006   0.0002705  )
        55           Si  tau(  55) = (   0.6266832   0.6337847   0.1260884  )
        56           Si  tau(  56) = (   0.7529818   0.5077269   0.2511337  )
        57           Si  tau(  57) = (   0.8772943   0.8876858   0.6297496  )
        58           Si  tau(  58) = (   0.5012963   0.7608764   0.7549051  )
        59           Si  tau(  59) = (   0.8784208   0.6345400   0.8809149  )
        60           Si  tau(  60) = (   0.5024022   0.5079158   0.5046990  )
        61           Si  tau(  61) = (   0.6262557   0.8881024   0.8812746  )
        62           Si  tau(  62) = (   0.7532813   0.7608724   0.5029712  )
        63           Si  tau(  63) = (   0.6277687   0.6341211   0.6290059  )
        64           Si  tau(  64) = (   0.7533525   0.5063467   0.7554069  )

     number of k points=     1
                       cart. coord. in units 2pi/alat
        k(    1) = (   0.0000000   0.0000000   0.0000000), wk =   2.0000000

     Dense  grid:    96457 G-vectors     FFT dimensions: (  72,  75,  72)

     Estimated max dynamical RAM per process >     281.03 MB

     Initial potential from superposition of free atoms

     starting charge     253.0416, renormalised to     256.0000
     Starting wfcs are random

     total cpu time spent up to now is        1.4 secs

     Self-consistent Calculation

     iteration #  1     ecut=    30.00 Ry     beta= 0.50
     Davidson diagonalization with overlap
     ethr =  1.00E-02,  avg # of iterations = 12.0

     Threshold (ethr) on eigenvalues was too large:
     Diagonalizing with lowered threshold

     Davidson diagonalization with overlap
     ethr =  6.36E-04,  avg # of iterations =  8.0

     total cpu time spent up to now is        1.8 secs

     total energy              =    -503.83939529 Ry
     estimated scf accuracy    <       1.87960217 Ry

     iteration #  2     ecut=    30.00 Ry     beta= 0.50
     Davidson diagonalization with overlap
     ethr =  7.34E-04,  avg # of iterations =  1.0

     total cpu time spent up to now is        1.9 secs

     total energy              =    -503.83759216 Ry
     estimated scf accuracy    <       0.34908885 Ry

     iteration #  3     ecut=    30.00 Ry     beta= 0.50
     Davidson diagonalization with overlap
     ethr =  1.36E-04,  avg # of iterations =  2.0

     total cpu time spent up to now is        2.0 secs

     total energy              =    -503.87210972 Ry
     estimated scf accuracy    <       0.00508234 Ry

     iteration #  4     ecut=    30.00 Ry     beta= 0.50
     Davidson diagonalization with overlap
     ethr =  1.99E-06,  avg # of iterations = 10.0

     total cpu time spent up to now is        2.2 secs

     total energy              =    -503.88175226 Ry
     estimated scf accuracy    <       0.00313475 Ry

     iteration #  5     ecut=    30.00 Ry     beta= 0.50
     Davidson diagonalization with overlap
     ethr =  1.22E-06,  avg # of iterations =  3.0

     total cpu time spent up to now is        2.3 secs

     total energy              =    -503.88248136 Ry
     estimated scf accuracy    <       0.00037357 Ry

     iteration #  6     ecut=    30.00 Ry     beta= 0.50
     Davidson diagonalization with overlap
     ethr =  1.46E-07,  avg # of iterations =  7.0

     total cpu time spent up to now is        2.5 secs

     total energy              =    -503.88247890 Ry
     estimated scf accuracy    <       0.00011421 Ry

     iteration #  7     ecut=    30.00 Ry     beta= 0.50
     Davidson diagonalization with overlap
     ethr =  4.46E-08,  avg # of iterations =  3.0

     total cpu time spent up to now is        2.6 secs

     total energy              =    -503.88250997 Ry
     estimated scf accuracy    <       0.00005694 Ry

     iteration #  8     ecut=    30.00 Ry     beta= 0.50
     Davidson diagonalization with overlap
     ethr =  2.22E-08,  avg # of iterations =  2.0

     total cpu time spent up to now is        2.7 secs

     total energy              =    -503.88251715 Ry
     estimated scf accuracy    <       0.00000309 Ry

     iteration #  9     ecut=    30.00 Ry     beta= 0.50
     Davidson diagonalization with overlap
     ethr =  1.21E-09,  avg # of iterations =  7.0

     total cpu time spent up to now is        2.9 secs

     total energy              =    -503.88251820 Ry
     estimated scf accuracy    <       0.00000632 Ry

     iteration # 10     ecut=    30.00 Ry     beta= 0.50
     Davidson diagonalization with overlap
     ethr =  1.21E-09,  avg # of iterations =  3.0

     total cpu time spent up to now is        3.0 secs

     End of self-consistent calculation

          k = 0.0000 0.0000 0.0000 ( 12021 PWs)   bands (ev):

    -5.7298  -4.7024  -4.6845  -4.6719  -4.6225  -4.6098  -4.5861  -3.8090
    -3.7756  -3.7647  -3.7103  -3.6936  -3.6835  -3.6769  -3.6693  -3.6571
    -3.6130  -3.5931  -3.5855  -3.4300  -3.3663  -3.3572  -3.3184  -1.7037
    -1.6786  -1.6424  -1.5884  -1.5482  -1.5280  -1.4715  -1.4559  -1.4537
    -1.4389  -1.4275  -1.4079  -1.3892  -1.3850  -1.3845  -1.3703  -1.3631
    -1.3582  -0.7796  -0.7700  -0.7485  -0.6473   0.6820   0.7010   0.7178
     0.7214   0.7290   0.7341   0.7444   0.7610   0.7663   0.7702   0.7840
     0.7955   2.2792   2.2894   2.2949   2.3128   2.3277   2.3410   2.3487
     2.3758   2.3786   2.3883   2.3933   2.3986   2.4525   2.4635   2.4757
     2.4925   2.5034   2.5106   2.5188   2.5219   2.5333   2.5376   2.5440
     2.5509   2.6686   2.6988   2.7212   2.7292   2.7474   2.7537   3.3136
     3.3461   3.3724   3.3745   3.4016   3.4400   4.2329   4.2794   4.2838
     4.3078   4.3199   4.3545   4.3603   4.3618   4.3758   4.3861   4.4250
     4.4318   4.6267   4.7426   4.7971   4.8756   4.8902   4.8980   4.9079
     4.9384   4.9405   4.9568   4.9725   4.9989   5.0099   5.0169   5.0420
     5.0565   5.0760   5.1060   5.1163   5.1407   6.1700   6.2118   6.3145

     highest occupied level (ev):     6.3145

!    total energy              =    -503.88251843 Ry
     estimated scf accuracy    <       0.00000051 Ry

     The total energy is the sum of the following terms:
     one-electron contribution =     150.27790305 Ry
     hartree contribution      =      36.46313842 Ry
     xc contribution           =    -154.33957913 Ry
     ewald contribution        =    -536.28398077 Ry

     convergence has been achieved in  10 iterations

     Forces acting on atoms (cartesian axes, Ry/au):

     atom    1 type  1   force =     0.00183605    0.00343660    0.00142824
     atom    2 type  1   force =     0.01780237   -0.00524004    0.00350358
     atom    3 type  1   force =     0.00251205    0.00331547    0.00159963
     atom    4 type  1   force =     0.01223162    0.02360353    0.02129708
     atom    5 type  1   force =     0.00136127    0.00122833   -0.00511200
     atom    6 type  1   force =    -0.00031327   -0.00289155    0.02147371
     atom    7 type  1   force =     0.00100733    0.00635836    0.00814536
     atom    8 type  1   force =     0.00001951    0.02372111   -0.00074485
     atom    9 type  1   force =     0.00093404   -0.00451752    0.00165052
     atom   10 type  1   force =     0.01134292   -0.00042145   -0.00195847
     atom   11 type  1   force =    -0.00194550   -0.00068107   -0.02032788
     atom   12 type  1   force =     0.01307506    0.02273180   -0.00369158
     atom   13 type  1   force =    -0.00099132   -0.00207643   -0.02369107
     atom   14 type  1   force =     0.00316272    0.00196017   -0.00129978
     atom   15 type  1   force =     0.00076257    0.00005731    0.00106317
     atom   16 type  1   force =    -0.00230330    0.02471980   -0.00468012
     atom   17 type  1   force =     0.00067304   -0.02720472    0.00383419
     atom   18 type  1   force =     0.01741991    0.00007608    0.00399325
     atom   19 type  1   force =    -0.00194258    0.00336781    0.00064750
     atom   20 type  1   force =     0.01477545   -0.00241239    0.02878815
     atom   21 type  1   force =    -0.00270672   -0.02576301   -0.00029267
     atom   22 type  1   force =     0.00547147   -0.00439646    0.02692306
     atom   23 type  1   force =    -0.00078962    0.00168952    0.00190748
     atom   24 type  1   force =     0.00003752   -0.00455067    0.00610055
     atom   25 type  1   force =     0.00146618   -0.02536983    0.00188299
     atom   26 type  1   force =     0.01595953   -0.00430999   -0.00264787
     atom   27 type  1   force =    -0.00531112    0.00496298   -0.03497741
     atom   28 type  1   force =     0.00644671    0.00055034   -0.00090938
     atom   29 type  1   force =    -0.00267833   -0.02002367   -0.02756494
     atom   30 type  1   force =     0.00126510   -0.00279649   -0.00195686
     atom   31 type  1   force =     0.00154070    0.00227035   -0.00011497
     atom   32 type  1   force =     0.00473103    0.00465997    0.00056017
     atom   33 type  1   force =    -0.01512237    0.00207353   -0.00365431
     atom   34 type  1   force =    -0.00138140   -0.00276065    0.00118034
     atom   35 type  1   force =    -0.01329641    0.00722698    0.00371655
     atom   36 type  1   force =    -0.00585443    0.03077394    0.03119802
     atom   37 type  1   force =     0.00249636   -0.00060477    0.00443392
     atom   38 type  1   force =    -0.00107800   -0.00156621    0.03031627
     atom   39 type  1   force =     0.00267475    0.00196119    0.00581812
     atom   40 type  1   force =    -0.00139980    0.02033583   -0.00536022
     atom   41 type  1   force =    -0.00617550   -0.00341837   -0.00342046
     atom   42 type  1   force =     0.00024900    0.00510681   -0.00786835
     atom   43 type  1   force =    -0.00733895    0.00239276   -0.02643941
     atom   44 type  1   force =     0.00139501    0.02479382   -0.00263122
     atom   45 type  1   force =     0.00236590    0.00291946   -0.03064561
     atom   46 type  1   force =     0.00119843    0.00415669   -0.00883413
     atom   47 type  1   force =    -0.00327046   -0.00244738    0.00253318
     atom   48 type  1   force =    -0.00624428    0.02226052   -0.00461113
     atom   49 type  1   force =    -0.01837989   -0.02123778    0.00307935
     atom   50 type  1   force =    -0.00216584    0.00325499    0.00175983
     atom   51 type  1   force =    -0.01040725   -0.00309746    0.00249833
     atom   52 type  1   force =     0.00035330   -0.00352141    0.03371107
     atom   53 type  1   force =    -0.00268764   -0.02494156   -0.00079694
     atom   54 type  1   force =    -0.00193493    0.00151045    0.02461574
     atom   55 type  1   force =     0.00095429   -0.00145383   -0.00008907
     atom   56 type  1   force =    -0.00310661   -0.00192453    0.00426770
     atom   57 type  1   force =    -0.01079373   -0.02178370   -0.00062253
     atom   58 type  1   force =    -0.00069664   -0.00384249   -0.00129716
     atom   59 type  1   force =    -0.01617288   -0.00098586   -0.02630951
     atom   60 type  1   force =    -0.00084707   -0.00457809   -0.00636676
     atom   61 type  1   force =     0.00864288   -0.03077170   -0.03073833
     atom   62 type  1   force =    -0.00338002   -0.00235136    0.00102197
     atom   63 type  1   force =     0.00191471    0.00120313    0.00470883
     atom   64 type  1   force =    -0.00736295    0.00526279   -0.00000285

     Total force =     0.162775     Total SCF correction =     0.001438


     Computing stress (Cartesian axis) and pressure

          total   stress  (Ry/bohr**3)                   (kbar)     P=       26.80
   0.00019898  -0.00002970  -0.00002698           29.27       -4.37       -3.97
  -0.00002970   0.00014823  -0.00001387           -4.37       21.81       -2.04
  -0.00002698  -0.00001387   0.00019941           -3.97       -2.04       29.33

 
     init_run     :      0.94s CPU      1.35s WALL (       1 calls)
     electrons    :      1.59s CPU      1.67s WALL (       1 calls)
     forces       :      0.07s CPU      0.07s WALL (       1 calls)
     stress       :      0.22s CPU      0.25s WALL (       1 calls)

     Called by init_run:
     wfcinit      :      0.57s CPU      0.86s WALL (       1 calls)
                                        0.86s GPU  (       1 calls)
     potinit      :      0.23s CPU      0.27s WALL (       1 calls)
     hinit0       :      0.11s CPU      0.12s WALL (       1 calls)

     Called by electrons:
     c_bands      :      1.00s CPU      1.02s WALL (      11 calls)
     sum_band     :      0.23s CPU      0.24s WALL (      11 calls)
     v_of_rho     :      0.15s CPU      0.22s WALL (      11 calls)
     mix_rho      :      0.20s CPU      0.23s WALL (      11 calls)

     Called by c_bands:
     init_us_2    :      0.03s CPU      0.04s WALL (      23 calls)
     init_us_2:gp :      0.03s CPU      0.04s WALL (      23 calls)
     regterg      :      0.89s CPU      0.91s WALL (      11 calls)

     Called by *egterg:
     rdiaghg      :      0.32s CPU      0.38s WALL (      68 calls)
                                        0.37s GPU  (      68 calls)
     h_psi        :      0.97s CPU      1.21s WALL (      70 calls)
                                        1.21s GPU  (      70 calls)
     g_psi        :      0.00s CPU      0.00s WALL (      58 calls)
                                        0.00s GPU  (      58 calls)

     Called by h_psi:
     h_psi:calbec :      0.46s CPU      0.71s WALL (      70 calls)
                                        0.71s GPU  (      70 calls)
     vloc_psi     :      0.41s CPU      0.43s WALL (      70 calls)
                                        0.43s GPU  (      70 calls)
     add_vuspsi   :      0.03s CPU      0.06s WALL (      70 calls)
                                        0.06s GPU  (      70 calls)

     General routines
     calbec       :      0.46s CPU      0.68s WALL (      75 calls)
     fft          :      0.17s CPU      0.17s WALL (      95 calls)
                                        0.03s GPU  (      59 calls)
     ffts         :      0.05s CPU      0.05s WALL (      11 calls)
     fftw         :      0.03s CPU      0.48s WALL (    1060 calls)
                                        0.39s GPU  (    1060 calls)
 
     Parallel routines
 
     PWSCF        :      2.84s CPU      3.39s WALL

 
   This run was terminated on:  21:50: 9   8Jul2023            

=------------------------------------------------------------------------------=
   JOB DONE.
=------------------------------------------------------------------------------=
