
     Program PWSCF v.7.0 starts on  8Jul2023 at 21:48:54 

     This program is part of the open-source Quantum ESPRESSO suite
     for quantum simulation of materials; please cite
         "P. Giannozzi et al., J. Phys.:Condens. Matter 21 395502 (2009);
         "P. Giannozzi et al., J. Phys.:Condens. Matter 29 465901 (2017);
         "P. Giannozzi et al., J. Chem. Phys. 152 154105 (2020);
          URL http://www.quantum-espresso.org", 
     in publications or presentations arising from this work. More details at
     http://www.quantum-espresso.org/quote

     Parallel version (MPI & OpenMP), running on       1 processor cores
     Number of MPI processes:                 1
     Threads/MPI process:                     1

     MPI processes distributed on     1 nodes
     109280 MiB available memory on the printing compute node when the environment starts
 
     Reading input from pw-si-27.in
Warning: card &CELL ignored
Warning: card / ignored

     Current dimensions of program PWSCF are:
     Max number of different atomic species (ntypx) = 10
     Max number of k-points (npk) =  40000
     Max angular momentum in pseudopotentials (lmaxx) =  4

     IMPORTANT: XC functional enforced from input :
     Exchange-correlation= PBE
                           (   1   4   3   4   0   0   0)
     Any further DFT definition will be discarded
     Please, verify this is what you really want


     gamma-point specific algorithms are used

     Subspace diagonalization in iterative solution of the eigenvalue problem:
     a serial algorithm will be used

 
     G-vector sticks info
     --------------------
     sticks:   dense  smooth     PW     G-vecs:    dense   smooth      PW
     Sum        4083    4083   1019               197887   197887   24739
 
     Using Slab Decomposition
 


     bravais-lattice index     =            0
     lattice parameter (alat)  =      20.7717  a.u.
     unit-cell volume          =    8914.7184 (a.u.)^3
     number of atoms/cell      =           64
     number of atomic types    =            1
     number of electrons       =       256.00
     number of Kohn-Sham states=          128
     kinetic-energy cutoff     =      30.0000  Ry
     charge density cutoff     =     120.0000  Ry
     scf convergence threshold =      1.0E-06
     mixing beta               =       0.5000
     number of iterations used =            8  plain     mixing
     Exchange-correlation= PBE
                           (   1   4   3   4   0   0   0)

     GPU acceleration is ACTIVE.


     celldm(1)=  20.771717  celldm(2)=   0.000000  celldm(3)=   0.000000
     celldm(4)=   0.000000  celldm(5)=   0.000000  celldm(6)=   0.000000

     crystal axes: (cart. coord. in units of alat)
               a(1) = (   1.000000   0.000000   0.000000 )  
               a(2) = (   0.000000   0.992433   0.000000 )  
               a(3) = (   0.000000   0.000000   1.002281 )  

     reciprocal axes: (cart. coord. in units 2 pi/alat)
               b(1) = (  1.000000  0.000000  0.000000 )  
               b(2) = (  0.000000  1.007625  0.000000 )  
               b(3) = (  0.000000  0.000000  0.997724 )  


     PseudoPot. # 1 for Si read from file:
     ./Si_ONCV_PBE-1.0.upf
     MD5 check sum: 2de5a83d12544a9ea852f39b88f19b1f
     Pseudo is Norm-conserving, Zval =  4.0
     Generated using ONCVPSP code by D. R. Hamann
     Using radial grid of  602 points,  4 beta functions with: 
                l(1) =   0
                l(2) =   0
                l(3) =   1
                l(4) =   1

     atomic species   valence    mass     pseudopotential
        Si             4.00    28.08500     Si( 1.00)

     No symmetry found



   Cartesian axes

     site n.     atom                  positions (alat units)
         1           Si  tau(   1) = (   0.3743732   0.3705690   0.1261915  )
         2           Si  tau(   2) = (  -0.0003851   0.2470442   0.2510381  )
         3           Si  tau(   3) = (   0.3739762   0.1233809   0.3758396  )
         4           Si  tau(   4) = (  -0.0004485   0.0005935  -0.0008715  )
         5           Si  tau(   5) = (   0.1256461   0.3701379   0.3759815  )
         6           Si  tau(   6) = (   0.2492209   0.2464098   0.0005728  )
         7           Si  tau(   7) = (   0.1247845   0.1228904   0.1259831  )
         8           Si  tau(   8) = (   0.2501204  -0.0001634   0.2513825  )
         9           Si  tau(   9) = (   0.3750409   0.3709223   0.6278837  )
        10           Si  tau(  10) = (  -0.0008263   0.2470391   0.7527399  )
        11           Si  tau(  11) = (   0.3750939   0.1236664   0.8776388  )
        12           Si  tau(  12) = (  -0.0003102   0.0005660   0.5010435  )
        13           Si  tau(  13) = (   0.1248817   0.3712839   0.8774681  )
        14           Si  tau(  14) = (   0.2502479   0.2462340   0.5023789  )
        15           Si  tau(  15) = (   0.1255618   0.1237624   0.6271740  )
        16           Si  tau(  16) = (   0.2487932   0.0000203   0.7525409  )
        17           Si  tau(  17) = (   0.3749110   0.8655212   0.1258209  )
        18           Si  tau(  18) = (  -0.0006465   0.7413154   0.2507127  )
        19           Si  tau(  19) = (   0.3745600   0.6175938   0.3756028  )
        20           Si  tau(  20) = (   0.0007886   0.4944511   0.0008090  )
        21           Si  tau(  21) = (   0.1244404   0.8646532   0.3757265  )
        22           Si  tau(  22) = (   0.2505149   0.7405564   0.0003442  )
        23           Si  tau(  23) = (   0.1245211   0.6174273   0.1246601  )
        24           Si  tau(  24) = (   0.2496777   0.4933639   0.2501151  )
        25           Si  tau(  25) = (   0.3736709   0.8654696   0.6273711  )
        26           Si  tau(  26) = (  -0.0005914   0.7408579   0.7525547  )
        27           Si  tau(  27) = (   0.3745204   0.6183957   0.8786362  )
        28           Si  tau(  28) = (   0.0004185   0.4935802   0.5015511  )
        29           Si  tau(  29) = (   0.1256004   0.8641872   0.8779309  )
        30           Si  tau(  30) = (   0.2500873   0.7411824   0.5025494  )
        31           Si  tau(  31) = (   0.1251253   0.6178609   0.6266354  )
        32           Si  tau(  32) = (   0.2501765   0.4935953   0.7535199  )
        33           Si  tau(  33) = (   0.8732978   0.3700368   0.1256276  )
        34           Si  tau(  34) = (   0.4998599   0.2468787   0.2502505  )
        35           Si  tau(  35) = (   0.8733113   0.1231326   0.3755687  )
        36           Si  tau(  36) = (   0.4984910  -0.0002299   0.0001152  )
        37           Si  tau(  37) = (   0.6239440   0.3712788   0.3758209  )
        38           Si  tau(  38) = (   0.7486127   0.2466649  -0.0004153  )
        39           Si  tau(  39) = (   0.6245821   0.1235986   0.1246258  )
        40           Si  tau(  40) = (   0.7480528   0.0000061   0.2507567  )
        41           Si  tau(  41) = (   0.8739240   0.3706948   0.6268572  )
        42           Si  tau(  42) = (   0.4984281   0.2476685   0.7524553  )
        43           Si  tau(  43) = (   0.8738197   0.1235948   0.8787850  )
        44           Si  tau(  44) = (   0.4989509  -0.0007135   0.5012247  )
        45           Si  tau(  45) = (   0.6232622   0.3714049   0.8777818  )
        46           Si  tau(  46) = (   0.7493315   0.2473510   0.5012559  )
        47           Si  tau(  47) = (   0.6244767   0.1226872   0.6269706  )
        48           Si  tau(  48) = (   0.7484571   0.0006474   0.7525811  )
        49           Si  tau(  49) = (   0.8738299   0.8652171   0.1255022  )
        50           Si  tau(  50) = (   0.4992250   0.7414710   0.2502994  )
        51           Si  tau(  51) = (   0.8744210   0.6184098   0.3769364  )
        52           Si  tau(  52) = (   0.4986863   0.4936903   0.0007207  )
        53           Si  tau(  53) = (   0.6241847   0.8639435   0.3758732  )
        54           Si  tau(  54) = (   0.7490898   0.7415500  -0.0006506  )
        55           Si  tau(  55) = (   0.6246663   0.6182378   0.1258876  )
        56           Si  tau(  56) = (   0.7487204   0.4933232   0.2511994  )
        57           Si  tau(  57) = (   0.8736761   0.8648029   0.6277564  )
        58           Si  tau(  58) = (   0.5000570   0.7416398   0.7531805  )
        59           Si  tau(  59) = (   0.8741341   0.6171706   0.8777548  )
        60           Si  tau(  60) = (   0.5001616   0.4949776   0.5016892  )
        61           Si  tau(  61) = (   0.6236861   0.8642943   0.8780452  )
        62           Si  tau(  62) = (   0.7496545   0.7413772   0.5026857  )
        63           Si  tau(  63) = (   0.6244661   0.6180265   0.6272135  )
        64           Si  tau(  64) = (   0.7484699   0.4933981   0.7532764  )

     number of k points=     1
                       cart. coord. in units 2pi/alat
        k(    1) = (   0.0000000   0.0000000   0.0000000), wk =   2.0000000

     Dense  grid:    98944 G-vectors     FFT dimensions: (  75,  72,  75)

     Estimated max dynamical RAM per process >     288.61 MB

     Initial potential from superposition of free atoms

     starting charge     253.0416, renormalised to     256.0000
     Starting wfcs are random

     total cpu time spent up to now is        1.4 secs

     Self-consistent Calculation

     iteration #  1     ecut=    30.00 Ry     beta= 0.50
     Davidson diagonalization with overlap
     ethr =  1.00E-02,  avg # of iterations = 15.0

     Threshold (ethr) on eigenvalues was too large:
     Diagonalizing with lowered threshold

     Davidson diagonalization with overlap
     ethr =  6.46E-04,  avg # of iterations =  4.0

     total cpu time spent up to now is        1.8 secs

     total energy              =    -503.89541821 Ry
     estimated scf accuracy    <       1.80018414 Ry

     iteration #  2     ecut=    30.00 Ry     beta= 0.50
     Davidson diagonalization with overlap
     ethr =  7.03E-04,  avg # of iterations =  1.0

     total cpu time spent up to now is        1.9 secs

     total energy              =    -503.89333268 Ry
     estimated scf accuracy    <       0.34005422 Ry

     iteration #  3     ecut=    30.00 Ry     beta= 0.50
     Davidson diagonalization with overlap
     ethr =  1.33E-04,  avg # of iterations =  2.0

     total cpu time spent up to now is        2.1 secs

     total energy              =    -503.92480832 Ry
     estimated scf accuracy    <       0.00455329 Ry

     iteration #  4     ecut=    30.00 Ry     beta= 0.50
     Davidson diagonalization with overlap
     ethr =  1.78E-06,  avg # of iterations = 10.0

     total cpu time spent up to now is        2.3 secs

     total energy              =    -503.93436235 Ry
     estimated scf accuracy    <       0.00125364 Ry

     iteration #  5     ecut=    30.00 Ry     beta= 0.50
     Davidson diagonalization with overlap
     ethr =  4.90E-07,  avg # of iterations =  4.0

     total cpu time spent up to now is        2.4 secs

     total energy              =    -503.93466295 Ry
     estimated scf accuracy    <       0.00027048 Ry

     iteration #  6     ecut=    30.00 Ry     beta= 0.50
     Davidson diagonalization with overlap
     ethr =  1.06E-07,  avg # of iterations =  4.0

     total cpu time spent up to now is        2.6 secs

     total energy              =    -503.93467593 Ry
     estimated scf accuracy    <       0.00005470 Ry

     iteration #  7     ecut=    30.00 Ry     beta= 0.50
     Davidson diagonalization with overlap
     ethr =  2.14E-08,  avg # of iterations =  7.0

     total cpu time spent up to now is        2.8 secs

     total energy              =    -503.93469280 Ry
     estimated scf accuracy    <       0.00004144 Ry

     iteration #  8     ecut=    30.00 Ry     beta= 0.50
     Davidson diagonalization with overlap
     ethr =  1.62E-08,  avg # of iterations =  3.0

     total cpu time spent up to now is        2.9 secs

     total energy              =    -503.93469482 Ry
     estimated scf accuracy    <       0.00000544 Ry

     iteration #  9     ecut=    30.00 Ry     beta= 0.50
     Davidson diagonalization with overlap
     ethr =  2.13E-09,  avg # of iterations =  7.0

     total cpu time spent up to now is        3.1 secs

     total energy              =    -503.93469745 Ry
     estimated scf accuracy    <       0.00000637 Ry

     iteration # 10     ecut=    30.00 Ry     beta= 0.50
     Davidson diagonalization with overlap
     ethr =  2.13E-09,  avg # of iterations =  2.0

     total cpu time spent up to now is        3.2 secs

     total energy              =    -503.93469708 Ry
     estimated scf accuracy    <       0.00000187 Ry

     iteration # 11     ecut=    30.00 Ry     beta= 0.50
     Davidson diagonalization with overlap
     ethr =  7.30E-10,  avg # of iterations =  3.0

     total cpu time spent up to now is        3.4 secs

     End of self-consistent calculation

          k = 0.0000 0.0000 0.0000 ( 12370 PWs)   bands (ev):

    -5.8037  -4.7647  -4.7626  -4.7599  -4.7523  -4.7430  -4.7124  -3.8500
    -3.8465  -3.8372  -3.8298  -3.8292  -3.8245  -3.8213  -3.8032  -3.7998
    -3.7947  -3.7811  -3.7704  -3.5685  -3.5494  -3.5446  -3.4951  -1.8040
    -1.8018  -1.7795  -1.7754  -1.7466  -1.7181  -1.6523  -1.6442  -1.6298
    -1.6260  -1.6149  -1.6121  -1.6038  -1.6035  -1.5954  -1.5915  -1.5812
    -1.5736  -0.9068  -0.8736  -0.8684  -0.8643   0.5029   0.5061   0.5090
     0.5149   0.5178   0.5230   0.5325   0.5337   0.5367   0.5471   0.5615
     0.5677   2.2048   2.2061   2.2102   2.2127   2.2161   2.2177   2.2207
     2.2220   2.2228   2.2249   2.2288   2.2300   2.2850   2.2886   2.2922
     2.2993   2.3103   2.3131   2.3144   2.3186   2.3348   2.3493   2.3514
     2.3665   2.4197   2.4210   2.4398   2.4452   2.4698   2.4871   3.1350
     3.1440   3.1952   3.1956   3.2187   3.2214   4.0619   4.0630   4.1010
     4.1160   4.1222   4.1358   4.1389   4.1415   4.1485   4.1546   4.1614
     4.1643   4.5959   4.6089   4.6134   4.6187   4.6617   4.6685   4.6762
     4.6835   4.6927   4.7015   4.7120   4.7173   4.7234   4.7415   4.7437
     4.8201   4.8244   4.8461   4.8492   4.8656   5.9258   5.9702   6.0058

     highest occupied level (ev):     6.0058

!    total energy              =    -503.93469731 Ry
     estimated scf accuracy    <       0.00000061 Ry

     The total energy is the sum of the following terms:
     one-electron contribution =     144.59649193 Ry
     hartree contribution      =      36.97020965 Ry
     xc contribution           =    -153.49200876 Ry
     ewald contribution        =    -532.00939013 Ry

     convergence has been achieved in  11 iterations

     Forces acting on atoms (cartesian axes, Ry/au):

     atom    1 type  1   force =    -0.00008787   -0.00473930   -0.00438121
     atom    2 type  1   force =    -0.00224279   -0.00205376   -0.00086192
     atom    3 type  1   force =     0.00613383   -0.00021813    0.00211023
     atom    4 type  1   force =     0.00156217   -0.01818585    0.00843418
     atom    5 type  1   force =    -0.00267931   -0.00185664    0.00275733
     atom    6 type  1   force =     0.00156490    0.00273813    0.00071011
     atom    7 type  1   force =    -0.00228262   -0.00023952   -0.00099896
     atom    8 type  1   force =    -0.00422217   -0.01376496   -0.00220427
     atom    9 type  1   force =    -0.00184139    0.00128464   -0.00606166
     atom   10 type  1   force =     0.00023527    0.00049478   -0.00159705
     atom   11 type  1   force =    -0.00671039   -0.00187095   -0.00192832
     atom   12 type  1   force =    -0.00254167   -0.01501319    0.00291692
     atom   13 type  1   force =    -0.00182582   -0.00648393    0.00191510
     atom   14 type  1   force =     0.00094975    0.00590032   -0.00223165
     atom   15 type  1   force =    -0.00836527   -0.00216729    0.00031531
     atom   16 type  1   force =     0.00448757   -0.01170305    0.00167497
     atom   17 type  1   force =    -0.00337400    0.00942524   -0.00059673
     atom   18 type  1   force =    -0.00063490    0.00071189   -0.00200048
     atom   19 type  1   force =    -0.00135252    0.00082500    0.00223743
     atom   20 type  1   force =    -0.01062231   -0.00403932   -0.00138247
     atom   21 type  1   force =     0.00205724    0.01148485    0.00440697
     atom   22 type  1   force =    -0.00312685    0.00730716    0.00550362
     atom   23 type  1   force =     0.00237041    0.00307382    0.00718553
     atom   24 type  1   force =    -0.00152254    0.00525398    0.00332777
     atom   25 type  1   force =     0.00482720    0.00977110    0.00202299
     atom   26 type  1   force =     0.00061490    0.00164726   -0.00098390
     atom   27 type  1   force =     0.00377819   -0.00501377   -0.00619696
     atom   28 type  1   force =    -0.00243746    0.00278501   -0.00077654
     atom   29 type  1   force =    -0.00560169    0.01274862   -0.00218162
     atom   30 type  1   force =    -0.00201266    0.00228461   -0.00724867
     atom   31 type  1   force =    -0.00080943   -0.00398035    0.00503486
     atom   32 type  1   force =    -0.00136441    0.00748656   -0.00516525
     atom   33 type  1   force =     0.00639073    0.00173603   -0.00148874
     atom   34 type  1   force =    -0.00198563   -0.00013455    0.00284533
     atom   35 type  1   force =     0.00408058    0.00122971    0.00173821
     atom   36 type  1   force =     0.00525588   -0.01141123    0.00155542
     atom   37 type  1   force =    -0.00007234   -0.00533912    0.00365127
     atom   38 type  1   force =     0.00043730    0.00496721    0.00288125
     atom   39 type  1   force =    -0.00381575   -0.00346148    0.00160018
     atom   40 type  1   force =     0.00277243   -0.01420858   -0.00091410
     atom   41 type  1   force =     0.00224837   -0.00071713    0.00146438
     atom   42 type  1   force =     0.00824609   -0.00486153   -0.00159771
     atom   43 type  1   force =     0.00135746   -0.00052924   -0.00977190
     atom   44 type  1   force =     0.00114379   -0.01112021    0.00007368
     atom   45 type  1   force =     0.00025183   -0.00627354   -0.00037153
     atom   46 type  1   force =    -0.00238913   -0.00187688    0.00023820
     atom   47 type  1   force =    -0.00473763    0.00589452   -0.00215395
     atom   48 type  1   force =     0.00303668   -0.01696701    0.00326953
     atom   49 type  1   force =     0.00198288    0.01292863   -0.00231708
     atom   50 type  1   force =     0.00095029   -0.00026621    0.00178045
     atom   51 type  1   force =     0.00084991   -0.00606882   -0.00193841
     atom   52 type  1   force =     0.00254757    0.00591294    0.00426299
     atom   53 type  1   force =    -0.00002842    0.01363138    0.00342682
     atom   54 type  1   force =     0.00241576   -0.00068918    0.00639635
     atom   55 type  1   force =    -0.00110610   -0.00366834   -0.00329058
     atom   56 type  1   force =     0.00450038    0.00816089    0.00005500
     atom   57 type  1   force =     0.00560102    0.01699393   -0.00082217
     atom   58 type  1   force =    -0.00643817    0.00015598   -0.00541300
     atom   59 type  1   force =     0.00266766    0.00005862   -0.00058649
     atom   60 type  1   force =    -0.00426701   -0.00183082   -0.00026105
     atom   61 type  1   force =     0.00237162    0.01851882   -0.00213603
     atom   62 type  1   force =    -0.00156005    0.00189248   -0.00371083
     atom   63 type  1   force =     0.00112037   -0.00042269    0.00295690
     atom   64 type  1   force =     0.00324825    0.00387247   -0.00517805

     Total force =     0.073522     Total SCF correction =     0.001585


     Computing stress (Cartesian axis) and pressure

          total   stress  (Ry/bohr**3)                   (kbar)     P=        2.36
   0.00000579  -0.00000055   0.00000854            0.85       -0.08        1.26
  -0.00000055   0.00005143   0.00000052           -0.08        7.56        0.08
   0.00000854   0.00000052  -0.00000903            1.26        0.08       -1.33

 
     init_run     :      0.91s CPU      1.37s WALL (       1 calls)
     electrons    :      1.90s CPU      1.97s WALL (       1 calls)
     forces       :      0.07s CPU      0.07s WALL (       1 calls)
     stress       :      0.23s CPU      0.26s WALL (       1 calls)

     Called by init_run:
     wfcinit      :      0.53s CPU      0.87s WALL (       1 calls)
                                        0.87s GPU  (       1 calls)
     potinit      :      0.23s CPU      0.28s WALL (       1 calls)
     hinit0       :      0.11s CPU      0.12s WALL (       1 calls)

     Called by electrons:
     c_bands      :      1.19s CPU      1.22s WALL (      12 calls)
     sum_band     :      0.27s CPU      0.28s WALL (      12 calls)
     v_of_rho     :      0.18s CPU      0.25s WALL (      12 calls)
     mix_rho      :      0.24s CPU      0.26s WALL (      12 calls)

     Called by c_bands:
     init_us_2    :      0.04s CPU      0.05s WALL (      25 calls)
     init_us_2:gp :      0.04s CPU      0.05s WALL (      25 calls)
     regterg      :      1.07s CPU      1.09s WALL (      12 calls)

     Called by *egterg:
     rdiaghg      :      0.36s CPU      0.40s WALL (      73 calls)
                                        0.39s GPU  (      73 calls)
     h_psi        :      1.06s CPU      1.36s WALL (      75 calls)
                                        1.36s GPU  (      75 calls)
     g_psi        :      0.00s CPU      0.00s WALL (      62 calls)
                                        0.00s GPU  (      62 calls)

     Called by h_psi:
     h_psi:calbec :      0.40s CPU      0.71s WALL (      75 calls)
                                        0.71s GPU  (      75 calls)
     vloc_psi     :      0.56s CPU      0.58s WALL (      75 calls)
                                        0.57s GPU  (      75 calls)
     add_vuspsi   :      0.03s CPU      0.07s WALL (      75 calls)
                                        0.07s GPU  (      75 calls)

     General routines
     calbec       :      0.40s CPU      0.68s WALL (      80 calls)
     fft          :      0.18s CPU      0.20s WALL (     103 calls)
                                        0.03s GPU  (      64 calls)
     ffts         :      0.04s CPU      0.05s WALL (      12 calls)
     fftw         :      0.04s CPU      0.64s WALL (    1150 calls)
                                        0.54s GPU  (    1150 calls)
 
     Parallel routines
 
     PWSCF        :      3.14s CPU      3.72s WALL

 
   This run was terminated on:  21:48:58   8Jul2023            

=------------------------------------------------------------------------------=
   JOB DONE.
=------------------------------------------------------------------------------=
