An instance of this daemon is already running

     Program PWSCF v.7.1 starts on 10May2023 at 11:16:12 

     This program is part of the open-source Quantum ESPRESSO suite
     for quantum simulation of materials; please cite
         "P. Giannozzi et al., J. Phys.:Condens. Matter 21 395502 (2009);
         "P. Giannozzi et al., J. Phys.:Condens. Matter 29 465901 (2017);
         "P. Giannozzi et al., J. Chem. Phys. 152 154105 (2020);
          URL http://www.quantum-espresso.org", 
     in publications or presentations arising from this work. More details at
     http://www.quantum-espresso.org/quote

     Parallel version (MPI & OpenMP), running on       4 processor cores
     Number of MPI processes:                 4
     Threads/MPI process:                     1

     MPI processes distributed on     1 nodes
     753579 MiB available memory on the printing compute node when the environment starts
 
     Reading input from pw-si-36.in
Warning: card &CELL ignored
Warning: card / ignored

     Current dimensions of program PWSCF are:
     Max number of different atomic species (ntypx) = 10
     Max number of k-points (npk) =  40000
     Max angular momentum in pseudopotentials (lmaxx) =  4

     IMPORTANT: XC functional enforced from input :
     Exchange-correlation= PBE
                           (   1   4   3   4   0   0   0)
     Any further DFT definition will be discarded
     Please, verify this is what you really want


     gamma-point specific algorithms are used
 
     K-points division:     npool     =       2
     R & G space division:  proc/nbgrp/npool/nimage =       2
     Subspace diagonalization in iterative solution of the eigenvalue problem:
     a serial algorithm will be used

     Message from routine divide_et_impera:
     suboptimal parallelization: some nodes have no k-points
 
     Parallelization info
     --------------------
     sticks:   dense  smooth     PW     G-vecs:    dense   smooth      PW
     Min        2037    2037    539                95811    95811   13039
     Max        2038    2038    540                95814    95814   13040
     Sum        4075    4075   1079               191625   191625   26079
 
     Using Slab Decomposition
 


     bravais-lattice index     =            0
     lattice parameter (alat)  =      21.2091  a.u.
     unit-cell volume          =    8642.7821 (a.u.)^3
     number of atoms/cell      =           64
     number of atomic types    =            1
     number of electrons       =       256.00
     number of Kohn-Sham states=          154
     kinetic-energy cutoff     =      30.0000  Ry
     charge density cutoff     =     120.0000  Ry
     scf convergence threshold =      1.0E-06
     mixing beta               =       0.5000
     number of iterations used =            8  plain     mixing
     Exchange-correlation= PBE
                           (   1   4   3   4   0   0   0)

     GPU acceleration is ACTIVE.
     GPU-aware MPI enabled

     Message from routine print_cuda_info:
     High GPU oversubscription detected. Are you sure this is what you want?

     celldm(1)=  21.209100  celldm(2)=   0.000000  celldm(3)=   0.000000
     celldm(4)=   0.000000  celldm(5)=   0.000000  celldm(6)=   0.000000

     crystal axes: (cart. coord. in units of alat)
               a(1) = (   1.000000   0.000000   0.000000 )  
               a(2) = (   0.000000   0.950026   0.000000 )  
               a(3) = (   0.000000   0.000000   0.953567 )  

     reciprocal axes: (cart. coord. in units 2 pi/alat)
               b(1) = (  1.000000  0.000000  0.000000 )  
               b(2) = (  0.000000  1.052602  0.000000 )  
               b(3) = (  0.000000  0.000000  1.048694 )  


     PseudoPot. # 1 for Si read from file:
     /home/ppiaggi/pseudos/Si_ONCV_PBE_sr.upf
     MD5 check sum: 8553c464762ac42b85b1eed164b4d029
     Pseudo is Norm-conserving, Zval =  4.0
     Generated using ONCVPSP code by D. R. Hamann
     Using radial grid of 1510 points,  4 beta functions with: 
                l(1) =   0
                l(2) =   0
                l(3) =   1
                l(4) =   1

     atomic species   valence    mass     pseudopotential
        Si             4.00    28.08500     Si( 1.00)

     No symmetry found



   Cartesian axes

     site n.     atom                  positions (alat units)
         1           Si  tau(   1) = (  -0.0024894   0.0023964  -0.0079036  )
         2           Si  tau(   2) = (  -0.0000692   0.2343896   0.2425296  )
         3           Si  tau(   3) = (   0.2529178   0.0009047   0.2280755  )
         4           Si  tau(   4) = (   0.2459318   0.2399267  -0.0038387  )
         5           Si  tau(   5) = (   0.1177425   0.1236821   0.1242959  )
         6           Si  tau(   6) = (   0.5072625  -0.0040520  -0.0019702  )
         7           Si  tau(   7) = (   0.5047915   0.2292927   0.2301991  )
         8           Si  tau(   8) = (   0.6333126   0.1140637   0.1262658  )
         9           Si  tau(   9) = (   0.7601634   0.0026858   0.2390499  )
        10           Si  tau(  10) = (   0.7530004   0.2295890  -0.0040493  )
        11           Si  tau(  11) = (   0.0003800   0.4743053  -0.0039046  )
        12           Si  tau(  12) = (   0.2564589   0.4728101   0.2366064  )
        13           Si  tau(  13) = (   0.1255332   0.5918979   0.1163784  )
        14           Si  tau(  14) = (   0.3763864   0.3615896   0.1220590  )
        15           Si  tau(  15) = (   0.5121904   0.4762550  -0.0034751  )
        16           Si  tau(  16) = (   0.6263885   0.5904458   0.1152305  )
        17           Si  tau(  17) = (   0.8757270   0.3500895   0.1145546  )
        18           Si  tau(  18) = (   0.7482001   0.4689110   0.2403391  )
        19           Si  tau(  19) = (  -0.0042651   0.7066160   0.2398809  )
        20           Si  tau(  20) = (   0.2565210   0.7210848  -0.0007721  )
        21           Si  tau(  21) = (   0.3773504   0.8292351   0.1105718  )
        22           Si  tau(  22) = (   0.5106358   0.7081795   0.2394700  )
        23           Si  tau(  23) = (   0.7471866   0.7172017  -0.0024775  )
        24           Si  tau(  24) = (   0.8848975   0.8384662   0.1110267  )
        25           Si  tau(  25) = (  -0.0012640  -0.0006271   0.4771290  )
        26           Si  tau(  26) = (   0.2486059   0.2424775   0.4734392  )
        27           Si  tau(  27) = (   0.1268770   0.1162738   0.5845627  )
        28           Si  tau(  28) = (   0.3794817   0.1119503   0.3590695  )
        29           Si  tau(  29) = (   0.5050186  -0.0062530   0.4807297  )
        30           Si  tau(  30) = (   0.6266718   0.1147510   0.5917145  )
        31           Si  tau(  31) = (   0.8871394   0.1194138   0.3471015  )
        32           Si  tau(  32) = (   0.7468240   0.2313609   0.4729568  )
        33           Si  tau(  33) = (   0.1323181   0.3641115   0.3540302  )
        34           Si  tau(  34) = (  -0.0031127   0.4669800   0.4682976  )
        35           Si  tau(  35) = (   0.1263664   0.5862012   0.5942423  )
        36           Si  tau(  36) = (   0.6295890   0.3634064   0.3582148  )
        37           Si  tau(  37) = (   0.3738944   0.6020465   0.3593829  )
        38           Si  tau(  38) = (   0.3756191   0.3618777   0.5988619  )
        39           Si  tau(  39) = (   0.5060334   0.4724638   0.4792354  )
        40           Si  tau(  40) = (   0.6370523   0.6003938   0.5891908  )
        41           Si  tau(  41) = (   0.8830579   0.5977071   0.3493270  )
        42           Si  tau(  42) = (   0.8850598   0.3507459   0.5883079  )
        43           Si  tau(  43) = (   0.1268328   0.8377838   0.3502389  )
        44           Si  tau(  44) = (   0.2460361   0.7165191   0.4697410  )
        45           Si  tau(  45) = (   0.6313275   0.8402514   0.3499108  )
        46           Si  tau(  46) = (   0.3821024   0.8270949   0.5990025  )
        47           Si  tau(  47) = (   0.7629140   0.7088561   0.4687800  )
        48           Si  tau(  48) = (   0.8892938   0.8382718   0.5998417  )
        49           Si  tau(  49) = (  -0.0084739   0.2449138   0.7140518  )
        50           Si  tau(  50) = (   0.2515895  -0.0048194   0.7062805  )
        51           Si  tau(  51) = (   0.3716801   0.1196030   0.8196086  )
        52           Si  tau(  52) = (   0.5054816   0.2425333   0.7112808  )
        53           Si  tau(  53) = (   0.7617288  -0.0040482   0.7093922  )
        54           Si  tau(  54) = (   0.8887381   0.1179301   0.8312715  )
        55           Si  tau(  55) = (   0.1266686   0.3563492   0.8271438  )
        56           Si  tau(  56) = (   0.2595614   0.4789230   0.7023573  )
        57           Si  tau(  57) = (   0.6284489   0.3532078   0.8316528  )
        58           Si  tau(  58) = (   0.3740320   0.5871915   0.8228235  )
        59           Si  tau(  59) = (   0.7536603   0.4760196   0.7156384  )
        60           Si  tau(  60) = (   0.8738318   0.5957970   0.8206035  )
        61           Si  tau(  61) = (  -0.0042779   0.7210185   0.7130495  )
        62           Si  tau(  62) = (   0.1335295   0.8399980   0.8313988  )
        63           Si  tau(  63) = (   0.5076582   0.7050623   0.7044720  )
        64           Si  tau(  64) = (   0.6295646   0.8299757   0.8340551  )

     number of k points=     1  Fermi-Dirac smearing, width (Ry)=  0.0100
                       cart. coord. in units 2pi/alat
        k(    1) = (   0.0000000   0.0000000   0.0000000), wk =   2.0000000

     Dense  grid:    95813 G-vectors     FFT dimensions: (  75,  72,  72)

     Estimated max dynamical RAM per process >     153.56 MB

     Estimated total dynamical RAM >     590.87 MB

     Initial potential from superposition of free atoms

     starting charge     255.9608, renormalised to     256.0000
     Starting wfcs are  256 randomized atomic wfcs

     total cpu time spent up to now is        5.2 secs

     Self-consistent Calculation

     iteration #  1     ecut=    30.00 Ry     beta= 0.50
     Davidson diagonalization with overlap
     ethr =  1.00E-02,  avg # of iterations =  3.0

     Threshold (ethr) on eigenvalues was too large:
     Diagonalizing with lowered threshold

     Davidson diagonalization with overlap
     ethr =  6.83E-04,  avg # of iterations =  3.0

     total cpu time spent up to now is        5.5 secs

     total energy              =    -503.57759685 Ry
     estimated scf accuracy    <       1.93469850 Ry

     iteration #  2     ecut=    30.00 Ry     beta= 0.50
     Davidson diagonalization with overlap
     ethr =  7.56E-04,  avg # of iterations =  1.0

     total cpu time spent up to now is        5.6 secs

     total energy              =    -503.57083992 Ry
     estimated scf accuracy    <       0.34354129 Ry

     iteration #  3     ecut=    30.00 Ry     beta= 0.50
     Davidson diagonalization with overlap
     ethr =  1.34E-04,  avg # of iterations = 13.0

     total cpu time spent up to now is        5.7 secs

     total energy              =    -503.59002774 Ry
     estimated scf accuracy    <       0.03520265 Ry

     iteration #  4     ecut=    30.00 Ry     beta= 0.50
     Davidson diagonalization with overlap
     ethr =  1.38E-05,  avg # of iterations =  7.0

     total cpu time spent up to now is        5.9 secs

     total energy              =    -503.59733901 Ry
     estimated scf accuracy    <       0.01814660 Ry

     iteration #  5     ecut=    30.00 Ry     beta= 0.50
     Davidson diagonalization with overlap
     ethr =  7.09E-06,  avg # of iterations =  5.0

     total cpu time spent up to now is        6.0 secs

     total energy              =    -503.59989763 Ry
     estimated scf accuracy    <       0.00397528 Ry

     iteration #  6     ecut=    30.00 Ry     beta= 0.50
     Davidson diagonalization with overlap
     c_bands:  1 eigenvalues not converged
     ethr =  1.55E-06,  avg # of iterations = 20.0

     total cpu time spent up to now is        6.2 secs

     total energy              =    -503.60050782 Ry
     estimated scf accuracy    <       0.00066623 Ry

     iteration #  7     ecut=    30.00 Ry     beta= 0.50
     Davidson diagonalization with overlap
     ethr =  2.60E-07,  avg # of iterations =  4.0

     total cpu time spent up to now is        6.4 secs

     total energy              =    -503.60057165 Ry
     estimated scf accuracy    <       0.00019630 Ry

     iteration #  8     ecut=    30.00 Ry     beta= 0.50
     Davidson diagonalization with overlap
     ethr =  7.67E-08,  avg # of iterations =  4.0

     total cpu time spent up to now is        6.5 secs

     total energy              =    -503.60061040 Ry
     estimated scf accuracy    <       0.00001449 Ry

     iteration #  9     ecut=    30.00 Ry     beta= 0.50
     Davidson diagonalization with overlap
     ethr =  5.66E-09,  avg # of iterations =  4.0

     total cpu time spent up to now is        6.6 secs

     total energy              =    -503.60061359 Ry
     estimated scf accuracy    <       0.00000304 Ry

     iteration # 10     ecut=    30.00 Ry     beta= 0.50
     Davidson diagonalization with overlap
     ethr =  1.19E-09,  avg # of iterations =  4.0

     total cpu time spent up to now is        6.7 secs

     End of self-consistent calculation

          k = 0.0000 0.0000 0.0000 ( 12005 PWs)   bands (ev):

    -5.7697  -4.8581  -4.7373  -4.7280  -4.6577  -4.6120  -4.5590  -3.9619
    -3.9195  -3.8303  -3.8220  -3.7684  -3.7380  -3.6728  -3.6659  -3.6442
    -3.5881  -3.5438  -3.5098  -3.4580  -3.3524  -3.3050  -3.2344  -1.9040
    -1.8403  -1.7488  -1.6977  -1.6081  -1.5744  -1.5443  -1.5160  -1.4893
    -1.4113  -1.3840  -1.3479  -1.3365  -1.2904  -1.2787  -1.2660  -1.2327
    -1.1918  -0.8274  -0.7346  -0.6653  -0.5825   0.5326   0.5983   0.6311
     0.6747   0.6845   0.7368   0.7614   0.7884   0.8535   0.8885   0.9286
     1.0433   2.1575   2.1952   2.2188   2.2266   2.2400   2.2768   2.2930
     2.3292   2.3537   2.3586   2.3770   2.3947   2.4183   2.4300   2.4686
     2.4764   2.4957   2.5067   2.5475   2.5634   2.5839   2.6193   2.6252
     2.6432   2.6712   2.7473   2.9179   2.9242   2.9503   2.9930   3.2606
     3.2996   3.3177   3.3463   3.5893   3.6970   4.0687   4.1083   4.1478
     4.2240   4.2930   4.3167   4.3733   4.4000   4.4746   4.4970   4.5595
     4.5868   4.6210   4.6778   4.7054   4.7448   4.7786   4.8332   4.8745
     4.9090   4.9262   4.9463   4.9778   4.9936   5.0297   5.1788   5.2274
     5.2959   5.3490   5.4175   5.4632   5.5295   6.0823   6.3934   6.5089
     6.7001   6.7587   6.8024   6.8392   7.0575   7.1116   7.1862   7.2120
     7.2450   7.2986   7.5876   7.6127   7.6314   7.6446   7.6559   7.7019
     8.3165   8.3868   8.4409   8.4495   8.4652   8.5422   8.5688   8.6101
     8.6333   8.7472

     the Fermi energy is     6.5450 ev

!    total energy              =    -503.60061388 Ry
     estimated scf accuracy    <       0.00000065 Ry
     smearing contrib. (-TS)   =      -0.06990981 Ry
     internal energy E=F+TS    =    -503.53070407 Ry

     The total energy is F=E-TS. E is the sum of the following terms:
     one-electron contribution =     151.04566643 Ry
     hartree contribution      =      36.20351355 Ry
     xc contribution           =    -154.26202176 Ry
     ewald contribution        =    -536.51786230 Ry

     convergence has been achieved in  10 iterations

     Forces acting on atoms (cartesian axes, Ry/au):

     atom    1 type  1   force =     0.08274215   -0.00112497    0.02885385
     atom    2 type  1   force =     0.04152547    0.08857682   -0.03361661
     atom    3 type  1   force =     0.00180456    0.00481328    0.01558876
     atom    4 type  1   force =     0.01782516   -0.01042662    0.01259732
     atom    5 type  1   force =     0.03723878   -0.02463758   -0.05326868
     atom    6 type  1   force =    -0.02661427    0.03801053   -0.01265856
     atom    7 type  1   force =    -0.02376355    0.04442401    0.05224980
     atom    8 type  1   force =    -0.00532205   -0.00360688   -0.05889148
     atom    9 type  1   force =     0.01499587   -0.01541565   -0.02388632
     atom   10 type  1   force =    -0.00188984   -0.00015123    0.00108916
     atom   11 type  1   force =    -0.00631389    0.00625292   -0.01750990
     atom   12 type  1   force =    -0.01327576    0.05855236    0.00623310
     atom   13 type  1   force =     0.01560912    0.01257719    0.00132383
     atom   14 type  1   force =     0.04007068   -0.04499925   -0.05372709
     atom   15 type  1   force =    -0.07346098   -0.02088403   -0.01423229
     atom   16 type  1   force =     0.03780665    0.01776079    0.02371706
     atom   17 type  1   force =    -0.00078459    0.01367537    0.01500951
     atom   18 type  1   force =     0.04764542    0.04069675   -0.04673525
     atom   19 type  1   force =     0.07929421    0.07719645   -0.07271670
     atom   20 type  1   force =    -0.04039748   -0.07151064   -0.04387488
     atom   21 type  1   force =     0.05380452    0.01613694    0.05350004
     atom   22 type  1   force =    -0.03790662    0.02879646   -0.01354808
     atom   23 type  1   force =     0.04514110   -0.03127287    0.01351644
     atom   24 type  1   force =    -0.04675463   -0.05369007    0.03272378
     atom   25 type  1   force =     0.03288929    0.01811791   -0.05292380
     atom   26 type  1   force =     0.03474132   -0.01678893    0.00179418
     atom   27 type  1   force =    -0.00885801    0.02896760    0.04523057
     atom   28 type  1   force =    -0.00475182    0.02199266   -0.01189880
     atom   29 type  1   force =    -0.01518474    0.00525941   -0.02449439
     atom   30 type  1   force =     0.01177539    0.00543375    0.03082765
     atom   31 type  1   force =    -0.06964243   -0.02825284    0.09022990
     atom   32 type  1   force =     0.03847533    0.01647076   -0.01766229
     atom   33 type  1   force =    -0.02533019   -0.03832017   -0.00711521
     atom   34 type  1   force =     0.03410004    0.04863174    0.00497709
     atom   35 type  1   force =    -0.03623288    0.04997064   -0.03027768
     atom   36 type  1   force =    -0.03685155   -0.07100019    0.00155931
     atom   37 type  1   force =     0.03389633   -0.03960179   -0.00869216
     atom   38 type  1   force =     0.04241751   -0.05266297   -0.05525078
     atom   39 type  1   force =    -0.02561765    0.04429298   -0.00656610
     atom   40 type  1   force =    -0.00118941   -0.04852075   -0.00367293
     atom   41 type  1   force =    -0.05941705   -0.08653039    0.03847007
     atom   42 type  1   force =    -0.09615282    0.02073902   -0.00352787
     atom   43 type  1   force =    -0.01873570   -0.01761833    0.00179186
     atom   44 type  1   force =    -0.00025928    0.00076456    0.03887221
     atom   45 type  1   force =     0.00873631   -0.04775199    0.03276350
     atom   46 type  1   force =    -0.02133001   -0.01350383   -0.03313890
     atom   47 type  1   force =    -0.01173711    0.06598783    0.01555659
     atom   48 type  1   force =    -0.06498149   -0.03401688   -0.06240936
     atom   49 type  1   force =     0.09092834   -0.04575924   -0.00759997
     atom   50 type  1   force =     0.00528164    0.03151881   -0.01678948
     atom   51 type  1   force =     0.02937229    0.00419501    0.05325352
     atom   52 type  1   force =    -0.02064893   -0.02873568   -0.00819928
     atom   53 type  1   force =    -0.04379470    0.03230025    0.03661254
     atom   54 type  1   force =    -0.08358818    0.01599921   -0.02435852
     atom   55 type  1   force =     0.00652544    0.02886239   -0.00679792
     atom   56 type  1   force =    -0.07485518   -0.02037436    0.05150187
     atom   57 type  1   force =     0.02396973    0.00587454    0.00911875
     atom   58 type  1   force =     0.05091616    0.04844465    0.05530256
     atom   59 type  1   force =    -0.00920439   -0.03255532   -0.05373702
     atom   60 type  1   force =     0.01400726    0.01854908    0.07463039
     atom   61 type  1   force =     0.08851867   -0.05269880    0.02732340
     atom   62 type  1   force =    -0.03493932   -0.03280556    0.01100131
     atom   63 type  1   force =    -0.01122569    0.01721561    0.05207484
     atom   64 type  1   force =    -0.01104255    0.00815952   -0.04951642

     Total force =     0.534664     Total SCF correction =     0.001500


     Computing stress (Cartesian axis) and pressure

          total   stress  (Ry/bohr**3)                   (kbar)     P=       35.58
   0.00007787   0.00001602  -0.00007217           11.45        2.36      -10.62
   0.00001602   0.00032710  -0.00006020            2.36       48.12       -8.86
  -0.00007217  -0.00006020   0.00032069          -10.62       -8.86       47.18

 
     init_run     :      1.28s CPU      5.12s WALL (       1 calls)
     electrons    :      1.42s CPU      1.51s WALL (       1 calls)
     forces       :      0.04s CPU      0.05s WALL (       1 calls)
     stress       :      0.16s CPU      0.16s WALL (       1 calls)

     Called by init_run:
     wfcinit      :      0.54s CPU      4.21s WALL (       1 calls)
                                        4.21s GPU  (       1 calls)
     potinit      :      0.20s CPU      0.30s WALL (       1 calls)
     hinit0       :      0.51s CPU      0.53s WALL (       1 calls)

     Called by electrons:
     c_bands      :      0.94s CPU      0.98s WALL (      11 calls)
     sum_band     :      0.25s CPU      0.28s WALL (      11 calls)
     v_of_rho     :      0.13s CPU      0.23s WALL (      11 calls)
     mix_rho      :      0.09s CPU      0.10s WALL (      11 calls)

     Called by c_bands:
     init_us_2    :      0.04s CPU      0.04s WALL (      23 calls)
     init_us_2:gp :      0.04s CPU      0.04s WALL (      23 calls)
     regterg      :      0.85s CPU      0.88s WALL (      11 calls)

     Called by *egterg:
     rdiaghg      :      0.37s CPU      1.13s WALL (      78 calls)
                                        1.11s GPU  (      78 calls)
     h_psi        :      0.86s CPU      3.79s WALL (      80 calls)
                                        3.79s GPU  (      80 calls)
     g_psi        :      0.00s CPU      0.00s WALL (      68 calls)
                                        0.00s GPU  (      68 calls)

     Called by h_psi:
     h_psi:calbec :      0.49s CPU      3.36s WALL (      80 calls)
                                        3.35s GPU  (      80 calls)
     vloc_psi     :      0.32s CPU      0.38s WALL (      80 calls)
                                        0.38s GPU  (      80 calls)
     add_vuspsi   :      0.04s CPU      0.05s WALL (      80 calls)
                                        0.05s GPU  (      80 calls)

     General routines
     calbec       :      0.50s CPU      3.36s WALL (      85 calls)
     fft          :      0.57s CPU      0.70s WALL (      95 calls)
                                        0.13s GPU  (      61 calls)
     ffts         :      0.03s CPU      0.04s WALL (      11 calls)
     fftw         :      0.36s CPU      0.48s WALL (    1227 calls)
                                        0.43s GPU  (    1227 calls)
 
     Parallel routines
 
     PWSCF        :      2.94s CPU      6.93s WALL

 
   This run was terminated on:  11:16:19  10May2023            

=------------------------------------------------------------------------------=
   JOB DONE.
=------------------------------------------------------------------------------=
