An instance of this daemon is already running
An instance of this daemon is already running

     Program PWSCF v.7.1 starts on 10May2023 at 11:24:37 

     This program is part of the open-source Quantum ESPRESSO suite
     for quantum simulation of materials; please cite
         "P. Giannozzi et al., J. Phys.:Condens. Matter 21 395502 (2009);
         "P. Giannozzi et al., J. Phys.:Condens. Matter 29 465901 (2017);
         "P. Giannozzi et al., J. Chem. Phys. 152 154105 (2020);
          URL http://www.quantum-espresso.org", 
     in publications or presentations arising from this work. More details at
     http://www.quantum-espresso.org/quote

     Parallel version (MPI & OpenMP), running on       4 processor cores
     Number of MPI processes:                 4
     Threads/MPI process:                     1

     MPI processes distributed on     1 nodes
     753569 MiB available memory on the printing compute node when the environment starts
 
     Reading input from pw-si-90.in
Warning: card &CELL ignored
Warning: card / ignored

     Current dimensions of program PWSCF are:
     Max number of different atomic species (ntypx) = 10
     Max number of k-points (npk) =  40000
     Max angular momentum in pseudopotentials (lmaxx) =  4

     IMPORTANT: XC functional enforced from input :
     Exchange-correlation= PBE
                           (   1   4   3   4   0   0   0)
     Any further DFT definition will be discarded
     Please, verify this is what you really want


     gamma-point specific algorithms are used
 
     K-points division:     npool     =       2
     R & G space division:  proc/nbgrp/npool/nimage =       2
     Subspace diagonalization in iterative solution of the eigenvalue problem:
     a serial algorithm will be used

     Message from routine divide_et_impera:
     suboptimal parallelization: some nodes have no k-points
 
     Parallelization info
     --------------------
     sticks:   dense  smooth     PW     G-vecs:    dense   smooth      PW
     Min        2115    2115    559               100041   100041   13587
     Max        2116    2116    560               100044   100044   13588
     Sum        4231    4231   1119               200085   200085   27175
 
     Using Slab Decomposition
 


     bravais-lattice index     =            0
     lattice parameter (alat)  =      21.2529  a.u.
     unit-cell volume          =    9015.2970 (a.u.)^3
     number of atoms/cell      =           64
     number of atomic types    =            1
     number of electrons       =       256.00
     number of Kohn-Sham states=          154
     kinetic-energy cutoff     =      30.0000  Ry
     charge density cutoff     =     120.0000  Ry
     scf convergence threshold =      1.0E-06
     mixing beta               =       0.5000
     number of iterations used =            8  plain     mixing
     Exchange-correlation= PBE
                           (   1   4   3   4   0   0   0)

     GPU acceleration is ACTIVE.
     GPU-aware MPI enabled

     Message from routine print_cuda_info:
     High GPU oversubscription detected. Are you sure this is what you want?

     celldm(1)=  21.252894  celldm(2)=   0.000000  celldm(3)=   0.000000
     celldm(4)=   0.000000  celldm(5)=   0.000000  celldm(6)=   0.000000

     crystal axes: (cart. coord. in units of alat)
               a(1) = (   1.000000   0.000000   0.000000 )  
               a(2) = (   0.000000   0.983081   0.000000 )  
               a(3) = (   0.000000   0.000000   0.955292 )  

     reciprocal axes: (cart. coord. in units 2 pi/alat)
               b(1) = (  1.000000  0.000000  0.000000 )  
               b(2) = (  0.000000  1.017210  0.000000 )  
               b(3) = (  0.000000  0.000000  1.046800 )  


     PseudoPot. # 1 for Si read from file:
     /home/ppiaggi/pseudos/Si_ONCV_PBE_sr.upf
     MD5 check sum: 8553c464762ac42b85b1eed164b4d029
     Pseudo is Norm-conserving, Zval =  4.0
     Generated using ONCVPSP code by D. R. Hamann
     Using radial grid of 1510 points,  4 beta functions with: 
                l(1) =   0
                l(2) =   0
                l(3) =   1
                l(4) =   1

     atomic species   valence    mass     pseudopotential
        Si             4.00    28.08500     Si( 1.00)

     No symmetry found



   Cartesian axes

     site n.     atom                  positions (alat units)
         1           Si  tau(   1) = (   0.0090994  -0.0045175  -0.0081017  )
         2           Si  tau(   2) = (   0.0004381   0.2488850   0.2486132  )
         3           Si  tau(   3) = (   0.2597362  -0.0028990   0.2462519  )
         4           Si  tau(   4) = (   0.2565215   0.2495382  -0.0042450  )
         5           Si  tau(   5) = (   0.1196916   0.1293418   0.1291705  )
         6           Si  tau(   6) = (   0.5181039  -0.0082538   0.0036252  )
         7           Si  tau(   7) = (   0.5089099   0.2497103   0.2503686  )
         8           Si  tau(   8) = (   0.6408756   0.1284561   0.1177070  )
         9           Si  tau(   9) = (   0.7621228  -0.0040301   0.2463935  )
        10           Si  tau(  10) = (   0.7657276   0.2405527  -0.0028925  )
        11           Si  tau(  11) = (   0.0015229   0.4866110  -0.0020461  )
        12           Si  tau(  12) = (   0.2490318   0.4971920   0.2392774  )
        13           Si  tau(  13) = (   0.1280106   0.6154499   0.1145853  )
        14           Si  tau(  14) = (   0.3879942   0.3668771   0.1245981  )
        15           Si  tau(  15) = (   0.5169837   0.4972601   0.0077696  )
        16           Si  tau(  16) = (   0.6446023   0.6221859   0.1315127  )
        17           Si  tau(  17) = (   0.8952190   0.3650101   0.1306675  )
        18           Si  tau(  18) = (   0.7651456   0.4987348   0.2470915  )
        19           Si  tau(  19) = (   0.0085435   0.7389258   0.2473078  )
        20           Si  tau(  20) = (   0.2499322   0.7415838  -0.0078163  )
        21           Si  tau(  21) = (   0.3866870   0.8679404   0.1205858  )
        22           Si  tau(  22) = (   0.5096318   0.7430119   0.2393900  )
        23           Si  tau(  23) = (   0.7638599   0.7349275   0.0057893  )
        24           Si  tau(  24) = (   0.8945532   0.8572905   0.1270320  )
        25           Si  tau(  25) = (  -0.0046250   0.0075586   0.4840086  )
        26           Si  tau(  26) = (   0.2508773   0.2527977   0.4851000  )
        27           Si  tau(  27) = (   0.1265608   0.1251498   0.6094844  )
        28           Si  tau(  28) = (   0.3836251   0.1224029   0.3649983  )
        29           Si  tau(  29) = (   0.5025328   0.0003585   0.4924668  )
        30           Si  tau(  30) = (   0.6344538   0.1143112   0.6133907  )
        31           Si  tau(  31) = (   0.9007118   0.1246474   0.3604910  )
        32           Si  tau(  32) = (   0.7746466   0.2482382   0.4825832  )
        33           Si  tau(  33) = (   0.1188293   0.3642172   0.3648267  )
        34           Si  tau(  34) = (   0.0069789   0.4903628   0.4974225  )
        35           Si  tau(  35) = (   0.1290834   0.6093909   0.6132256  )
        36           Si  tau(  36) = (   0.6377246   0.3615645   0.3695479  )
        37           Si  tau(  37) = (   0.3918834   0.6074284   0.3658499  )
        38           Si  tau(  38) = (   0.3748782   0.3595744   0.6156602  )
        39           Si  tau(  39) = (   0.5128661   0.4972752   0.4923111  )
        40           Si  tau(  40) = (   0.6350189   0.6137387   0.6175041  )
        41           Si  tau(  41) = (   0.9024373   0.6074921   0.3610822  )
        42           Si  tau(  42) = (   0.8973026   0.3647676   0.6073436  )
        43           Si  tau(  43) = (   0.1206597   0.8686081   0.3616074  )
        44           Si  tau(  44) = (   0.2543899   0.7413301   0.4854718  )
        45           Si  tau(  45) = (   0.6332822   0.8611906   0.3618935  )
        46           Si  tau(  46) = (   0.3827209   0.8602709   0.6153830  )
        47           Si  tau(  47) = (   0.7608834   0.7431517   0.4856138  )
        48           Si  tau(  48) = (   0.9023092   0.8606163   0.6076433  )
        49           Si  tau(  49) = (   0.0056907   0.2528390   0.7430028  )
        50           Si  tau(  50) = (   0.2472847   0.0011582   0.7360965  )
        51           Si  tau(  51) = (   0.3812434   0.1282882   0.8645694  )
        52           Si  tau(  52) = (   0.5118613   0.2470753   0.7301355  )
        53           Si  tau(  53) = (   0.7625094   0.0084521   0.7390062  )
        54           Si  tau(  54) = (   0.8947888   0.1141907   0.8611581  )
        55           Si  tau(  55) = (   0.1293900   0.3647027   0.8498166  )
        56           Si  tau(  56) = (   0.2570941   0.4992951   0.7332693  )
        57           Si  tau(  57) = (   0.6453816   0.3626384   0.8548527  )
        58           Si  tau(  58) = (   0.3808378   0.6228146   0.8626253  )
        59           Si  tau(  59) = (   0.7695894   0.4964758   0.7281456  )
        60           Si  tau(  60) = (   0.9006726   0.6142467   0.8640380  )
        61           Si  tau(  61) = (   0.0035751   0.7327429   0.7359102  )
        62           Si  tau(  62) = (   0.1198483   0.8587415   0.8584034  )
        63           Si  tau(  63) = (   0.5184224   0.7380221   0.7275882  )
        64           Si  tau(  64) = (   0.6448573   0.8596189   0.8561595  )

     number of k points=     1  Fermi-Dirac smearing, width (Ry)=  0.0100
                       cart. coord. in units 2pi/alat
        k(    1) = (   0.0000000   0.0000000   0.0000000), wk =   2.0000000

     Dense  grid:   100043 G-vectors     FFT dimensions: (  75,  75,  72)

     Estimated max dynamical RAM per process >     160.07 MB

     Estimated total dynamical RAM >     615.85 MB

     Initial potential from superposition of free atoms

     starting charge     255.9608, renormalised to     256.0000
     Starting wfcs are  256 randomized atomic wfcs

     total cpu time spent up to now is        5.0 secs

     Self-consistent Calculation

     iteration #  1     ecut=    30.00 Ry     beta= 0.50
     Davidson diagonalization with overlap
     ethr =  1.00E-02,  avg # of iterations =  3.0

     Threshold (ethr) on eigenvalues was too large:
     Diagonalizing with lowered threshold

     Davidson diagonalization with overlap
     ethr =  6.28E-04,  avg # of iterations =  3.0

     total cpu time spent up to now is        5.3 secs

     total energy              =    -503.37027217 Ry
     estimated scf accuracy    <       1.78822270 Ry

     iteration #  2     ecut=    30.00 Ry     beta= 0.50
     Davidson diagonalization with overlap
     ethr =  6.99E-04,  avg # of iterations =  2.0

     total cpu time spent up to now is        5.4 secs

     total energy              =    -503.34219582 Ry
     estimated scf accuracy    <       0.38362327 Ry

     iteration #  3     ecut=    30.00 Ry     beta= 0.50
     Davidson diagonalization with overlap
     ethr =  1.50E-04,  avg # of iterations = 15.0

     total cpu time spent up to now is        5.6 secs

     total energy              =    -503.27499852 Ry
     estimated scf accuracy    <       0.83974066 Ry

     iteration #  4     ecut=    30.00 Ry     beta= 0.50
     Davidson diagonalization with overlap
     ethr =  1.50E-04,  avg # of iterations =  5.0

     total cpu time spent up to now is        5.7 secs

     total energy              =    -503.40077410 Ry
     estimated scf accuracy    <       0.02336848 Ry

     iteration #  5     ecut=    30.00 Ry     beta= 0.50
     Davidson diagonalization with overlap
     ethr =  9.13E-06,  avg # of iterations = 14.0

     total cpu time spent up to now is        5.9 secs

     total energy              =    -503.40288980 Ry
     estimated scf accuracy    <       0.00868268 Ry

     iteration #  6     ecut=    30.00 Ry     beta= 0.50
     Davidson diagonalization with overlap
     ethr =  3.39E-06,  avg # of iterations = 10.0

     total cpu time spent up to now is        6.1 secs

     total energy              =    -503.40394146 Ry
     estimated scf accuracy    <       0.00186745 Ry

     iteration #  7     ecut=    30.00 Ry     beta= 0.50
     Davidson diagonalization with overlap
     ethr =  7.29E-07,  avg # of iterations =  4.0

     total cpu time spent up to now is        6.2 secs

     total energy              =    -503.40431393 Ry
     estimated scf accuracy    <       0.00058055 Ry

     iteration #  8     ecut=    30.00 Ry     beta= 0.50
     Davidson diagonalization with overlap
     ethr =  2.27E-07,  avg # of iterations =  3.0

     total cpu time spent up to now is        6.3 secs

     total energy              =    -503.40436892 Ry
     estimated scf accuracy    <       0.00011925 Ry

     iteration #  9     ecut=    30.00 Ry     beta= 0.50
     Davidson diagonalization with overlap
     ethr =  4.66E-08,  avg # of iterations =  4.0

     total cpu time spent up to now is        6.5 secs

     total energy              =    -503.40438048 Ry
     estimated scf accuracy    <       0.00002309 Ry

     iteration # 10     ecut=    30.00 Ry     beta= 0.50
     Davidson diagonalization with overlap
     ethr =  9.02E-09,  avg # of iterations =  4.0

     total cpu time spent up to now is        6.6 secs

     total energy              =    -503.40438430 Ry
     estimated scf accuracy    <       0.00000401 Ry

     iteration # 11     ecut=    30.00 Ry     beta= 0.50
     Davidson diagonalization with overlap
     ethr =  1.57E-09,  avg # of iterations =  4.0

     total cpu time spent up to now is        6.7 secs

     End of self-consistent calculation

          k = 0.0000 0.0000 0.0000 ( 12508 PWs)   bands (ev):

    -6.0729  -5.2114  -5.0666  -5.0570  -4.9689  -4.8484  -4.7367  -4.3816
    -4.2964  -4.1838  -4.0938  -4.0496  -3.9975  -3.9726  -3.8538  -3.8202
    -3.7552  -3.7208  -3.6893  -3.5715  -3.5286  -3.4417  -3.3871  -2.4180
    -2.2656  -2.1647  -2.0025  -1.9427  -1.9013  -1.8950  -1.8041  -1.7914
    -1.7553  -1.7335  -1.6781  -1.6669  -1.5878  -1.5188  -1.4805  -1.4423
    -1.4135  -1.2043  -1.0484  -0.8727  -0.7930   0.1432   0.1512   0.2162
     0.2514   0.3044   0.3284   0.3880   0.4204   0.4281   0.4867   0.5815
     0.6511   1.6186   1.6810   1.7318   1.7633   1.8281   1.9084   1.9343
     2.0200   2.0489   2.0768   2.0886   2.0999   2.1678   2.1856   2.1868
     2.2063   2.2473   2.2807   2.3235   2.3674   2.3888   2.4042   2.4514
     2.4611   2.4837   2.4942   2.5220   2.5385   2.5892   2.6517   2.7191
     2.9496   3.0062   3.1095   3.1871   3.2394   3.5125   3.6914   3.8009
     3.8860   3.8879   3.9319   3.9531   4.0158   4.0646   4.0978   4.1607
     4.1973   4.2228   4.2793   4.3883   4.4194   4.4866   4.5215   4.5501
     4.5725   4.6363   4.6581   4.6876   4.7044   4.7894   4.8194   4.8927
     4.9235   4.9919   5.0239   5.1357   5.2029   5.6093   5.9770   6.0430
     6.0931   6.2978   6.3462   6.5593   6.6668   6.7472   6.8129   6.8460
     6.8909   6.9476   6.9804   7.0325   7.0795   7.1142   7.1633   7.2002
     7.6403   7.8728   7.9084   7.9476   8.0109   8.0331   8.0749   8.0917
     8.1696   8.2161

     the Fermi energy is     6.0740 ev

!    total energy              =    -503.40438494 Ry
     estimated scf accuracy    <       0.00000073 Ry
     smearing contrib. (-TS)   =      -0.06684584 Ry
     internal energy E=F+TS    =    -503.33753910 Ry

     The total energy is F=E-TS. E is the sum of the following terms:
     one-electron contribution =     136.64147303 Ry
     hartree contribution      =      39.38019823 Ry
     xc contribution           =    -152.82135349 Ry
     ewald contribution        =    -526.53785687 Ry

     convergence has been achieved in  11 iterations

     Forces acting on atoms (cartesian axes, Ry/au):

     atom    1 type  1   force =     0.00554153    0.01520723    0.18820989
     atom    2 type  1   force =     0.05724511   -0.00740423   -0.01969573
     atom    3 type  1   force =    -0.02360356    0.03454360   -0.01525688
     atom    4 type  1   force =    -0.02035097    0.00885476    0.11184237
     atom    5 type  1   force =     0.06053705   -0.03168367   -0.03530892
     atom    6 type  1   force =    -0.02807778    0.06677996    0.03261248
     atom    7 type  1   force =     0.00884811   -0.02812486   -0.02940887
     atom    8 type  1   force =    -0.02018346   -0.02912018    0.04422367
     atom    9 type  1   force =     0.01241381    0.03543532   -0.02258843
     atom   10 type  1   force =     0.03076237    0.00844722    0.08008376
     atom   11 type  1   force =     0.08944476   -0.06886138    0.10614006
     atom   12 type  1   force =     0.02622492   -0.03257909    0.01682934
     atom   13 type  1   force =     0.00519985    0.00947106    0.01450346
     atom   14 type  1   force =    -0.02040945    0.02765237   -0.00129547
     atom   15 type  1   force =    -0.00005487   -0.01750008    0.03150113
     atom   16 type  1   force =    -0.02917659   -0.01527267   -0.01371875
     atom   17 type  1   force =    -0.08897033    0.03957730   -0.04619328
     atom   18 type  1   force =    -0.00010686   -0.04768749    0.00638307
     atom   19 type  1   force =     0.03167501   -0.01666181   -0.02787497
     atom   20 type  1   force =     0.01927753    0.01219654    0.10507292
     atom   21 type  1   force =    -0.02695345   -0.04139519    0.00251313
     atom   22 type  1   force =    -0.01096729   -0.01880616    0.01740729
     atom   23 type  1   force =     0.02910905    0.00651660    0.04284608
     atom   24 type  1   force =    -0.04712328    0.01433483   -0.01529748
     atom   25 type  1   force =     0.09165043   -0.02117574    0.03149595
     atom   26 type  1   force =     0.00478017   -0.04044719   -0.00545014
     atom   27 type  1   force =     0.00284723    0.00952113    0.00650879
     atom   28 type  1   force =    -0.01104793    0.01087517    0.02291622
     atom   29 type  1   force =     0.01702240   -0.00758283   -0.01797159
     atom   30 type  1   force =     0.01210676    0.04342944   -0.02010161
     atom   31 type  1   force =    -0.12522708   -0.01550464    0.00642588
     atom   32 type  1   force =    -0.03313827   -0.03545896    0.01742712
     atom   33 type  1   force =     0.05423866    0.05359794    0.01684603
     atom   34 type  1   force =     0.03204105    0.00175438   -0.04661306
     atom   35 type  1   force =     0.02381253    0.04341925   -0.00614619
     atom   36 type  1   force =     0.01065109    0.05346822    0.00820457
     atom   37 type  1   force =    -0.04027498    0.04312832   -0.01470724
     atom   38 type  1   force =     0.02907240    0.05496948   -0.01241158
     atom   39 type  1   force =    -0.00729920   -0.05872014    0.00817825
     atom   40 type  1   force =     0.03451663    0.00594793   -0.04140261
     atom   41 type  1   force =    -0.06411128    0.02366025    0.04650266
     atom   42 type  1   force =    -0.06264535    0.00635227    0.03480438
     atom   43 type  1   force =     0.04889815   -0.01481077    0.03340092
     atom   44 type  1   force =     0.00147203   -0.01279944   -0.00057216
     atom   45 type  1   force =    -0.00884983    0.00728553    0.03295055
     atom   46 type  1   force =    -0.01392205   -0.00350045   -0.00166276
     atom   47 type  1   force =     0.01863867   -0.02560299    0.00290249
     atom   48 type  1   force =    -0.09568769   -0.00532622    0.02052075
     atom   49 type  1   force =    -0.00252479   -0.06660811   -0.05277239
     atom   50 type  1   force =     0.02335957    0.00544689   -0.00337521
     atom   51 type  1   force =     0.05258935   -0.06403189   -0.08956530
     atom   52 type  1   force =    -0.00802002   -0.01780683    0.01729066
     atom   53 type  1   force =     0.01941606   -0.04242137   -0.02971752
     atom   54 type  1   force =    -0.07295787    0.08638404   -0.10390368
     atom   55 type  1   force =     0.03481831    0.06305560   -0.02699064
     atom   56 type  1   force =     0.01211530   -0.03178083    0.01215829
     atom   57 type  1   force =    -0.03833923    0.06214642   -0.06970198
     atom   58 type  1   force =     0.05791228   -0.03798979   -0.08482714
     atom   59 type  1   force =     0.00160983   -0.02649633    0.02103013
     atom   60 type  1   force =    -0.12374451    0.05380194   -0.10174007
     atom   61 type  1   force =     0.04174514    0.00905438   -0.02570430
     atom   62 type  1   force =     0.07091293   -0.04031801   -0.13076479
     atom   63 type  1   force =    -0.04246875    0.02089376    0.04310597
     atom   64 type  1   force =    -0.00626938   -0.01372981   -0.07009750

     Total force =     0.618848     Total SCF correction =     0.001504


     Computing stress (Cartesian axis) and pressure

          total   stress  (Ry/bohr**3)                   (kbar)     P=        0.81
  -0.00008777  -0.00016552   0.00006828          -12.91      -24.35       10.04
  -0.00016552   0.00004927  -0.00009312          -24.35        7.25      -13.70
   0.00006828  -0.00009312   0.00005510           10.04      -13.70        8.11

 
     init_run     :      1.17s CPU      4.90s WALL (       1 calls)
     electrons    :      1.62s CPU      1.73s WALL (       1 calls)
     forces       :      0.04s CPU      0.05s WALL (       1 calls)
     stress       :      0.17s CPU      0.17s WALL (       1 calls)

     Called by init_run:
     wfcinit      :      0.65s CPU      4.21s WALL (       1 calls)
                                        4.21s GPU  (       1 calls)
     potinit      :      0.22s CPU      0.31s WALL (       1 calls)
     hinit0       :      0.28s CPU      0.31s WALL (       1 calls)

     Called by electrons:
     c_bands      :      1.06s CPU      1.11s WALL (      12 calls)
     sum_band     :      0.30s CPU      0.32s WALL (      12 calls)
     v_of_rho     :      0.15s CPU      0.24s WALL (      12 calls)
     mix_rho      :      0.10s CPU      0.12s WALL (      12 calls)

     Called by c_bands:
     init_us_2    :      0.05s CPU      0.05s WALL (      25 calls)
     init_us_2:gp :      0.05s CPU      0.05s WALL (      25 calls)
     regterg      :      0.95s CPU      1.00s WALL (      12 calls)

     Called by *egterg:
     rdiaghg      :      0.39s CPU      1.13s WALL (      82 calls)
                                        1.11s GPU  (      82 calls)
     h_psi        :      1.05s CPU      3.91s WALL (      84 calls)
                                        3.91s GPU  (      84 calls)
     g_psi        :      0.00s CPU      0.00s WALL (      71 calls)
                                        0.00s GPU  (      71 calls)

     Called by h_psi:
     h_psi:calbec :      0.58s CPU      3.37s WALL (      84 calls)
                                        3.37s GPU  (      84 calls)
     vloc_psi     :      0.41s CPU      0.48s WALL (      84 calls)
                                        0.48s GPU  (      84 calls)
     add_vuspsi   :      0.03s CPU      0.05s WALL (      84 calls)
                                        0.05s GPU  (      84 calls)

     General routines
     calbec       :      0.59s CPU      3.37s WALL (      89 calls)
     fft          :      0.37s CPU      0.49s WALL (     103 calls)
                                        0.13s GPU  (      66 calls)
     ffts         :      0.04s CPU      0.04s WALL (      12 calls)
     fftw         :      0.44s CPU      0.60s WALL (    1330 calls)
                                        0.54s GPU  (    1330 calls)
 
     Parallel routines
 
     PWSCF        :      3.05s CPU      6.93s WALL

 
   This run was terminated on:  11:24:44  10May2023            

=------------------------------------------------------------------------------=
   JOB DONE.
=------------------------------------------------------------------------------=
