An instance of this daemon is already running

     Program PWSCF v.7.1 starts on 10May2023 at 11:22:17 

     This program is part of the open-source Quantum ESPRESSO suite
     for quantum simulation of materials; please cite
         "P. Giannozzi et al., J. Phys.:Condens. Matter 21 395502 (2009);
         "P. Giannozzi et al., J. Phys.:Condens. Matter 29 465901 (2017);
         "P. Giannozzi et al., J. Chem. Phys. 152 154105 (2020);
          URL http://www.quantum-espresso.org", 
     in publications or presentations arising from this work. More details at
     http://www.quantum-espresso.org/quote

     Parallel version (MPI & OpenMP), running on       4 processor cores
     Number of MPI processes:                 4
     Threads/MPI process:                     1

     MPI processes distributed on     1 nodes
     753561 MiB available memory on the printing compute node when the environment starts
 
     Reading input from pw-si-75.in
Warning: card &CELL ignored
Warning: card / ignored

     Current dimensions of program PWSCF are:
     Max number of different atomic species (ntypx) = 10
     Max number of k-points (npk) =  40000
     Max angular momentum in pseudopotentials (lmaxx) =  4

     IMPORTANT: XC functional enforced from input :
     Exchange-correlation= PBE
                           (   1   4   3   4   0   0   0)
     Any further DFT definition will be discarded
     Please, verify this is what you really want


     gamma-point specific algorithms are used
 
     K-points division:     npool     =       2
     R & G space division:  proc/nbgrp/npool/nimage =       2
     Subspace diagonalization in iterative solution of the eigenvalue problem:
     a serial algorithm will be used

     Message from routine divide_et_impera:
     suboptimal parallelization: some nodes have no k-points
 
     Parallelization info
     --------------------
     sticks:   dense  smooth     PW     G-vecs:    dense   smooth      PW
     Min        2101    2101    550               101868   101868   13802
     Max        2104    2104    551               101869   101869   13807
     Sum        4205    4205   1101               203737   203737   27609
 
     Using Slab Decomposition
 


     bravais-lattice index     =            0
     lattice parameter (alat)  =      20.8034  a.u.
     unit-cell volume          =    9173.8716 (a.u.)^3
     number of atoms/cell      =           64
     number of atomic types    =            1
     number of electrons       =       256.00
     number of Kohn-Sham states=          154
     kinetic-energy cutoff     =      30.0000  Ry
     charge density cutoff     =     120.0000  Ry
     scf convergence threshold =      1.0E-06
     mixing beta               =       0.5000
     number of iterations used =            8  plain     mixing
     Exchange-correlation= PBE
                           (   1   4   3   4   0   0   0)

     GPU acceleration is ACTIVE.
     GPU-aware MPI enabled

     Message from routine print_cuda_info:
     High GPU oversubscription detected. Are you sure this is what you want?

     celldm(1)=  20.803447  celldm(2)=   0.000000  celldm(3)=   0.000000
     celldm(4)=   0.000000  celldm(5)=   0.000000  celldm(6)=   0.000000

     crystal axes: (cart. coord. in units of alat)
               a(1) = (   1.000000   0.000000   0.000000 )  
               a(2) = (   0.000000   1.016658   0.000000 )  
               a(3) = (   0.000000   0.000000   1.002240 )  

     reciprocal axes: (cart. coord. in units 2 pi/alat)
               b(1) = (  1.000000  0.000000  0.000000 )  
               b(2) = (  0.000000  0.983615  0.000000 )  
               b(3) = (  0.000000  0.000000  0.997765 )  


     PseudoPot. # 1 for Si read from file:
     /home/ppiaggi/pseudos/Si_ONCV_PBE_sr.upf
     MD5 check sum: 8553c464762ac42b85b1eed164b4d029
     Pseudo is Norm-conserving, Zval =  4.0
     Generated using ONCVPSP code by D. R. Hamann
     Using radial grid of 1510 points,  4 beta functions with: 
                l(1) =   0
                l(2) =   0
                l(3) =   1
                l(4) =   1

     atomic species   valence    mass     pseudopotential
        Si             4.00    28.08500     Si( 1.00)

     No symmetry found



   Cartesian axes

     site n.     atom                  positions (alat units)
         1           Si  tau(   1) = (  -0.0005697   0.0029152  -0.0014586  )
         2           Si  tau(   2) = (   0.0019305   0.2549580   0.2548189  )
         3           Si  tau(   3) = (   0.2464088  -0.0017586   0.2461497  )
         4           Si  tau(   4) = (   0.2496540   0.2578444   0.0016184  )
         5           Si  tau(   5) = (   0.1297913   0.1362129   0.1217157  )
         6           Si  tau(   6) = (   0.5010813   0.0084159  -0.0031555  )
         7           Si  tau(   7) = (   0.4910129   0.2660133   0.2501493  )
         8           Si  tau(   8) = (   0.6133581   0.1291407   0.1257278  )
         9           Si  tau(   9) = (   0.7388359   0.0017561   0.2530634  )
        10           Si  tau(  10) = (   0.7395129   0.2546531   0.0004857  )
        11           Si  tau(  11) = (   0.0078283   0.5131866  -0.0000520  )
        12           Si  tau(  12) = (   0.2460585   0.5116949   0.2445489  )
        13           Si  tau(  13) = (   0.1158794   0.6521199   0.1333540  )
        14           Si  tau(  14) = (   0.3784137   0.3936626   0.1181123  )
        15           Si  tau(  15) = (   0.4855705   0.5207034   0.0022846  )
        16           Si  tau(  16) = (   0.6105463   0.6557376   0.1305430  )
        17           Si  tau(  17) = (   0.8665467   0.3886624   0.1281839  )
        18           Si  tau(  18) = (   0.7330493   0.5213252   0.2553201  )
        19           Si  tau(  19) = (   0.0050679   0.7840282   0.2408347  )
        20           Si  tau(  20) = (   0.2430518   0.7848323   0.0087662  )
        21           Si  tau(  21) = (   0.3734687   0.9044588   0.1216521  )
        22           Si  tau(  22) = (   0.4997939   0.7739818   0.2409969  )
        23           Si  tau(  23) = (   0.7403419   0.7702637  -0.0047705  )
        24           Si  tau(  24) = (   0.8657514   0.9077072   0.1193299  )
        25           Si  tau(  25) = (  -0.0073043  -0.0071619   0.5052871  )
        26           Si  tau(  26) = (   0.2464656   0.2672906   0.4972762  )
        27           Si  tau(  27) = (   0.1173144   0.1332960   0.6172901  )
        28           Si  tau(  28) = (   0.3743124   0.1252231   0.3789496  )
        29           Si  tau(  29) = (   0.4884569  -0.0007601   0.4924961  )
        30           Si  tau(  30) = (   0.6159671   0.1319841   0.6297392  )
        31           Si  tau(  31) = (   0.8567069   0.1321755   0.3685599  )
        32           Si  tau(  32) = (   0.7413251   0.2646118   0.5003642  )
        33           Si  tau(  33) = (   0.1308002   0.3879324   0.3765576  )
        34           Si  tau(  34) = (   0.0065338   0.5204972   0.4946930  )
        35           Si  tau(  35) = (   0.1306655   0.6572638   0.6279137  )
        36           Si  tau(  36) = (   0.6240759   0.3939765   0.3735710  )
        37           Si  tau(  37) = (   0.3733213   0.6432062   0.3668068  )
        38           Si  tau(  38) = (   0.3614076   0.3833138   0.6284383  )
        39           Si  tau(  39) = (   0.4990745   0.5194275   0.5054030  )
        40           Si  tau(  40) = (   0.6158639   0.6572668   0.6221134  )
        41           Si  tau(  41) = (   0.8624480   0.6539864   0.3699851  )
        42           Si  tau(  42) = (   0.8694164   0.3909301   0.6296135  )
        43           Si  tau(  43) = (   0.1205322   0.9060756   0.3715271  )
        44           Si  tau(  44) = (   0.2402876   0.7872314   0.5026186  )
        45           Si  tau(  45) = (   0.6133677   0.9137211   0.3754590  )
        46           Si  tau(  46) = (   0.3669985   0.9084022   0.6221735  )
        47           Si  tau(  47) = (   0.7465201   0.7767818   0.4995410  )
        48           Si  tau(  48) = (   0.8676935   0.9067039   0.6171444  )
        49           Si  tau(  49) = (   0.0056618   0.2605517   0.7436815  )
        50           Si  tau(  50) = (   0.2512393  -0.0068939   0.7405760  )
        51           Si  tau(  51) = (   0.3673927   0.1235761   0.8694101  )
        52           Si  tau(  52) = (   0.4853035   0.2590028   0.7501610  )
        53           Si  tau(  53) = (   0.7406274   0.0067687   0.7461434  )
        54           Si  tau(  54) = (   0.8558426   0.1379342   0.8732658  )
        55           Si  tau(  55) = (   0.1254417   0.3981438   0.8666761  )
        56           Si  tau(  56) = (   0.2427575   0.5110723   0.7442266  )
        57           Si  tau(  57) = (   0.6222861   0.3944103   0.8699054  )
        58           Si  tau(  58) = (   0.3726499   0.6501537   0.8720183  )
        59           Si  tau(  59) = (   0.7450716   0.5168997   0.7490664  )
        60           Si  tau(  60) = (   0.8687300   0.6565111   0.8695290  )
        61           Si  tau(  61) = (  -0.0080235   0.7777798   0.7494670  )
        62           Si  tau(  62) = (   0.1150087   0.8999374   0.8630579  )
        63           Si  tau(  63) = (   0.4886364   0.7693310   0.7473447  )
        64           Si  tau(  64) = (   0.6235589   0.9128949   0.8722439  )

     number of k points=     1  Fermi-Dirac smearing, width (Ry)=  0.0100
                       cart. coord. in units 2pi/alat
        k(    1) = (   0.0000000   0.0000000   0.0000000), wk =   2.0000000

     Dense  grid:   101869 G-vectors     FFT dimensions: (  75,  75,  75)

     Estimated max dynamical RAM per process >     163.37 MB

     Estimated total dynamical RAM >     628.61 MB

     Initial potential from superposition of free atoms

     starting charge     255.9608, renormalised to     256.0000
     Starting wfcs are  256 randomized atomic wfcs

     total cpu time spent up to now is        4.9 secs

     Self-consistent Calculation

     iteration #  1     ecut=    30.00 Ry     beta= 0.50
     Davidson diagonalization with overlap
     ethr =  1.00E-02,  avg # of iterations =  3.0

     Threshold (ethr) on eigenvalues was too large:
     Diagonalizing with lowered threshold

     Davidson diagonalization with overlap
     ethr =  6.21E-04,  avg # of iterations =  5.0

     total cpu time spent up to now is        5.2 secs

     total energy              =    -503.54207203 Ry
     estimated scf accuracy    <       1.76697313 Ry

     iteration #  2     ecut=    30.00 Ry     beta= 0.50
     Davidson diagonalization with overlap
     ethr =  6.90E-04,  avg # of iterations =  1.0

     total cpu time spent up to now is        5.3 secs

     total energy              =    -503.53065647 Ry
     estimated scf accuracy    <       0.33765941 Ry

     iteration #  3     ecut=    30.00 Ry     beta= 0.50
     Davidson diagonalization with overlap
     ethr =  1.32E-04,  avg # of iterations = 15.0

     total cpu time spent up to now is        5.5 secs

     total energy              =    -503.53087888 Ry
     estimated scf accuracy    <       0.15708201 Ry

     iteration #  4     ecut=    30.00 Ry     beta= 0.50
     Davidson diagonalization with overlap
     ethr =  6.14E-05,  avg # of iterations =  3.0

     total cpu time spent up to now is        5.6 secs

     total energy              =    -503.55886320 Ry
     estimated scf accuracy    <       0.01650261 Ry

     iteration #  5     ecut=    30.00 Ry     beta= 0.50
     Davidson diagonalization with overlap
     ethr =  6.45E-06,  avg # of iterations = 17.0

     total cpu time spent up to now is        5.9 secs

     total energy              =    -503.56046533 Ry
     estimated scf accuracy    <       0.00424991 Ry

     iteration #  6     ecut=    30.00 Ry     beta= 0.50
     Davidson diagonalization with overlap
     ethr =  1.66E-06,  avg # of iterations =  5.0

     total cpu time spent up to now is        6.0 secs

     total energy              =    -503.56119585 Ry
     estimated scf accuracy    <       0.00126402 Ry

     iteration #  7     ecut=    30.00 Ry     beta= 0.50
     Davidson diagonalization with overlap
     ethr =  4.94E-07,  avg # of iterations =  4.0

     total cpu time spent up to now is        6.1 secs

     total energy              =    -503.56140493 Ry
     estimated scf accuracy    <       0.00023175 Ry

     iteration #  8     ecut=    30.00 Ry     beta= 0.50
     Davidson diagonalization with overlap
     ethr =  9.05E-08,  avg # of iterations =  3.0

     total cpu time spent up to now is        6.3 secs

     total energy              =    -503.56143951 Ry
     estimated scf accuracy    <       0.00001787 Ry

     iteration #  9     ecut=    30.00 Ry     beta= 0.50
     Davidson diagonalization with overlap
     ethr =  6.98E-09,  avg # of iterations =  5.0

     total cpu time spent up to now is        6.4 secs

     total energy              =    -503.56144340 Ry
     estimated scf accuracy    <       0.00000406 Ry

     iteration # 10     ecut=    30.00 Ry     beta= 0.50
     Davidson diagonalization with overlap
     ethr =  1.58E-09,  avg # of iterations =  5.0

     total cpu time spent up to now is        6.6 secs

     total energy              =    -503.56144448 Ry
     estimated scf accuracy    <       0.00000179 Ry

     iteration # 11     ecut=    30.00 Ry     beta= 0.50
     Davidson diagonalization with overlap
     ethr =  6.97E-10,  avg # of iterations =  5.0

     total cpu time spent up to now is        6.7 secs

     End of self-consistent calculation

          k = 0.0000 0.0000 0.0000 ( 12739 PWs)   bands (ev):

    -6.0388  -5.1395  -5.1169  -5.0117  -4.9788  -4.9174  -4.8459  -4.3530
    -4.3111  -4.2097  -4.1660  -4.1443  -4.0730  -4.0480  -3.9957  -3.9730
    -3.9477  -3.8444  -3.8284  -3.7196  -3.6817  -3.6038  -3.4599  -2.3730
    -2.3226  -2.2920  -2.1581  -2.0997  -2.0645  -2.0028  -1.9753  -1.9078
    -1.8521  -1.8427  -1.8174  -1.7539  -1.7258  -1.6747  -1.6681  -1.6059
    -1.5535  -1.1922  -1.1063  -1.0223  -0.8411  -0.0936   0.0315   0.1469
     0.1926   0.2374   0.2485   0.2800   0.3028   0.3347   0.3523   0.4189
     0.4544   1.6768   1.7169   1.7489   1.7746   1.7912   1.8513   1.8699
     1.9107   1.9230   1.9468   1.9675   1.9824   2.0173   2.0384   2.0605
     2.0895   2.1042   2.1260   2.1585   2.1817   2.1836   2.2104   2.2418
     2.2456   2.2840   2.3032   2.3327   2.3956   2.4271   2.5184   2.8164
     2.8884   2.8980   2.9466   2.9803   3.0686   3.6330   3.6917   3.7113
     3.7297   3.7588   3.7963   3.8203   3.8944   3.9253   3.9339   4.0058
     4.0531   4.1253   4.1704   4.2231   4.2408   4.2830   4.2933   4.3186
     4.3855   4.4081   4.4668   4.5091   4.5475   4.5611   4.6097   4.6545
     4.6755   4.6935   4.8299   4.8404   5.0054   5.5653   5.6365   5.9731
     6.1082   6.2383   6.3200   6.3877   6.4441   6.5858   6.6486   6.6773
     6.7754   6.8197   6.8343   6.8571   6.9066   6.9501   6.9712   7.0013
     7.7008   7.7318   7.7696   7.7871   7.8438   7.8876   7.9071   7.9324
     8.0174   8.0965

     the Fermi energy is     5.9809 ev

!    total energy              =    -503.56144481 Ry
     estimated scf accuracy    <       0.00000024 Ry
     smearing contrib. (-TS)   =      -0.05941829 Ry
     internal energy E=F+TS    =    -503.50202651 Ry

     The total energy is F=E-TS. E is the sum of the following terms:
     one-electron contribution =     134.53126630 Ry
     hartree contribution      =      38.99494546 Ry
     xc contribution           =    -152.38800875 Ry
     ewald contribution        =    -524.64022952 Ry

     convergence has been achieved in  11 iterations

     Forces acting on atoms (cartesian axes, Ry/au):

     atom    1 type  1   force =    -0.01696651    0.05324523   -0.02484813
     atom    2 type  1   force =    -0.02232007    0.01514242   -0.01198333
     atom    3 type  1   force =     0.01612126    0.06227592    0.00809193
     atom    4 type  1   force =     0.01426124    0.02836689   -0.04793115
     atom    5 type  1   force =    -0.03646302   -0.02491041    0.01930983
     atom    6 type  1   force =    -0.03484348    0.00872591   -0.00616537
     atom    7 type  1   force =     0.02331125   -0.02116035    0.01048158
     atom    8 type  1   force =     0.01466670    0.03472807    0.01646820
     atom    9 type  1   force =     0.01003380    0.03808896   -0.04350976
     atom   10 type  1   force =    -0.00792222    0.04177019    0.00863909
     atom   11 type  1   force =    -0.05643142    0.03178041    0.00543803
     atom   12 type  1   force =     0.00996018    0.02018092    0.00199437
     atom   13 type  1   force =     0.04897722   -0.04219396   -0.05008424
     atom   14 type  1   force =    -0.05765461   -0.03855012    0.03033139
     atom   15 type  1   force =     0.07180264    0.03116969   -0.04770471
     atom   16 type  1   force =     0.05769593   -0.07745717   -0.07078916
     atom   17 type  1   force =     0.01632328   -0.00037614   -0.00545787
     atom   18 type  1   force =     0.04672788    0.02005225   -0.04426439
     atom   19 type  1   force =    -0.08324857    0.00154070    0.04011274
     atom   20 type  1   force =    -0.01287793   -0.04331007   -0.05418476
     atom   21 type  1   force =     0.01822944   -0.01570629   -0.00097301
     atom   22 type  1   force =    -0.05904362    0.05826403    0.07761892
     atom   23 type  1   force =     0.00167943    0.02980561    0.00974997
     atom   24 type  1   force =     0.00897064   -0.04387129    0.00369913
     atom   25 type  1   force =     0.02764031    0.10346050   -0.07180429
     atom   26 type  1   force =     0.00973202   -0.06759561    0.00957235
     atom   27 type  1   force =     0.02954507   -0.01693266    0.00099809
     atom   28 type  1   force =    -0.04793679    0.05940287   -0.04479736
     atom   29 type  1   force =     0.02285462    0.06057442    0.07370270
     atom   30 type  1   force =    -0.02001888    0.01790918   -0.04324693
     atom   31 type  1   force =     0.05076053    0.00796190    0.03945131
     atom   32 type  1   force =     0.00699094   -0.01404238    0.01127993
     atom   33 type  1   force =    -0.04142085    0.01471607   -0.03068480
     atom   34 type  1   force =    -0.03663902    0.01605012    0.02384508
     atom   35 type  1   force =    -0.04436354   -0.03104786   -0.00986197
     atom   36 type  1   force =    -0.04768405   -0.02222034    0.03110425
     atom   37 type  1   force =    -0.01132969    0.01606847    0.02637275
     atom   38 type  1   force =     0.04343604    0.02787664   -0.02225954
     atom   39 type  1   force =    -0.02439902   -0.01437741   -0.01834538
     atom   40 type  1   force =     0.02548011   -0.03860766    0.01028589
     atom   41 type  1   force =     0.05235191   -0.01498429   -0.00495254
     atom   42 type  1   force =     0.03403867    0.00124134   -0.03957623
     atom   43 type  1   force =    -0.01069404   -0.02507686    0.01020255
     atom   44 type  1   force =     0.03523749   -0.04160726   -0.03554412
     atom   45 type  1   force =     0.02911986   -0.11121762   -0.01923187
     atom   46 type  1   force =     0.05512991   -0.09322968   -0.03620512
     atom   47 type  1   force =    -0.03051154    0.01578585   -0.01401156
     atom   48 type  1   force =    -0.03381501   -0.06432557    0.06750713
     atom   49 type  1   force =    -0.05387360    0.00956448    0.03491194
     atom   50 type  1   force =    -0.08017841    0.09821336    0.05245149
     atom   51 type  1   force =    -0.00234401    0.02086700    0.02344336
     atom   52 type  1   force =     0.03182433    0.00294296    0.01174985
     atom   53 type  1   force =     0.03067974    0.02893636   -0.01181284
     atom   54 type  1   force =     0.07459729   -0.01394719   -0.00889191
     atom   55 type  1   force =    -0.01396275   -0.06364215    0.04422305
     atom   56 type  1   force =     0.03379130    0.06852773    0.00503305
     atom   57 type  1   force =    -0.03946028   -0.02190000    0.03816568
     atom   58 type  1   force =    -0.05669974   -0.02274070    0.03094911
     atom   59 type  1   force =     0.00095485    0.04050933   -0.00907714
     atom   60 type  1   force =     0.00658601   -0.06045389    0.02757622
     atom   61 type  1   force =    -0.00506575   -0.01251988   -0.03891219
     atom   62 type  1   force =     0.02845723   -0.00012286    0.05328036
     atom   63 type  1   force =     0.02768451    0.06142836    0.00302618
     atom   64 type  1   force =    -0.02748521   -0.08904648    0.00604421

     Total force =     0.540243     Total SCF correction =     0.000773


     Computing stress (Cartesian axis) and pressure

          total   stress  (Ry/bohr**3)                   (kbar)     P=      -13.45
  -0.00005919   0.00001571  -0.00014466           -8.71        2.31      -21.28
   0.00001571  -0.00015780   0.00001807            2.31      -23.21        2.66
  -0.00014466   0.00001807  -0.00005736          -21.28        2.66       -8.44

 
     init_run     :      0.97s CPU      4.81s WALL (       1 calls)
     electrons    :      1.68s CPU      1.80s WALL (       1 calls)
     forces       :      0.04s CPU      0.04s WALL (       1 calls)
     stress       :      0.17s CPU      0.17s WALL (       1 calls)

     Called by init_run:
     wfcinit      :      0.55s CPU      4.22s WALL (       1 calls)
                                        4.22s GPU  (       1 calls)
     potinit      :      0.21s CPU      0.29s WALL (       1 calls)
     hinit0       :      0.19s CPU      0.22s WALL (       1 calls)

     Called by electrons:
     c_bands      :      1.11s CPU      1.16s WALL (      12 calls)
     sum_band     :      0.30s CPU      0.34s WALL (      12 calls)
     v_of_rho     :      0.15s CPU      0.23s WALL (      12 calls)
     mix_rho      :      0.11s CPU      0.12s WALL (      12 calls)

     Called by c_bands:
     init_us_2    :      0.05s CPU      0.05s WALL (      25 calls)
     init_us_2:gp :      0.05s CPU      0.05s WALL (      25 calls)
     regterg      :      1.00s CPU      1.05s WALL (      12 calls)

     Called by *egterg:
     rdiaghg      :      0.40s CPU      1.16s WALL (      82 calls)
                                        1.14s GPU  (      82 calls)
     h_psi        :      0.99s CPU      3.94s WALL (      84 calls)
                                        3.94s GPU  (      84 calls)
     g_psi        :      0.00s CPU      0.00s WALL (      71 calls)
                                        0.00s GPU  (      71 calls)

     Called by h_psi:
     h_psi:calbec :      0.49s CPU      3.36s WALL (      84 calls)
                                        3.36s GPU  (      84 calls)
     vloc_psi     :      0.45s CPU      0.52s WALL (      84 calls)
                                        0.51s GPU  (      84 calls)
     add_vuspsi   :      0.03s CPU      0.05s WALL (      84 calls)
                                        0.05s GPU  (      84 calls)

     General routines
     calbec       :      0.50s CPU      3.37s WALL (      89 calls)
     fft          :      0.28s CPU      0.40s WALL (     103 calls)
                                        0.12s GPU  (      66 calls)
     ffts         :      0.04s CPU      0.05s WALL (      12 calls)
     fftw         :      0.48s CPU      0.64s WALL (    1332 calls)
                                        0.58s GPU  (    1332 calls)
 
     Parallel routines
 
     PWSCF        :      2.91s CPU      6.91s WALL

 
   This run was terminated on:  11:22:24  10May2023            

=------------------------------------------------------------------------------=
   JOB DONE.
=------------------------------------------------------------------------------=
