An instance of this daemon is already running
An instance of this daemon is already running

     Program PWSCF v.7.1 starts on 10May2023 at 11:23: 4 

     This program is part of the open-source Quantum ESPRESSO suite
     for quantum simulation of materials; please cite
         "P. Giannozzi et al., J. Phys.:Condens. Matter 21 395502 (2009);
         "P. Giannozzi et al., J. Phys.:Condens. Matter 29 465901 (2017);
         "P. Giannozzi et al., J. Chem. Phys. 152 154105 (2020);
          URL http://www.quantum-espresso.org", 
     in publications or presentations arising from this work. More details at
     http://www.quantum-espresso.org/quote

     Parallel version (MPI & OpenMP), running on       4 processor cores
     Number of MPI processes:                 4
     Threads/MPI process:                     1

     MPI processes distributed on     1 nodes
     753551 MiB available memory on the printing compute node when the environment starts
 
     Reading input from pw-si-80.in
Warning: card &CELL ignored
Warning: card / ignored

     Current dimensions of program PWSCF are:
     Max number of different atomic species (ntypx) = 10
     Max number of k-points (npk) =  40000
     Max angular momentum in pseudopotentials (lmaxx) =  4

     IMPORTANT: XC functional enforced from input :
     Exchange-correlation= PBE
                           (   1   4   3   4   0   0   0)
     Any further DFT definition will be discarded
     Please, verify this is what you really want


     gamma-point specific algorithms are used
 
     K-points division:     npool     =       2
     R & G space division:  proc/nbgrp/npool/nimage =       2
     Subspace diagonalization in iterative solution of the eigenvalue problem:
     a serial algorithm will be used

     Message from routine divide_et_impera:
     suboptimal parallelization: some nodes have no k-points
 
     Parallelization info
     --------------------
     sticks:   dense  smooth     PW     G-vecs:    dense   smooth      PW
     Min        2031    2031    542                98370    98370   13402
     Max        2034    2034    543                98371    98371   13407
     Sum        4065    4065   1085               196741   196741   26809
 
     Using Slab Decomposition
 


     bravais-lattice index     =            0
     lattice parameter (alat)  =      20.6580  a.u.
     unit-cell volume          =    8867.4253 (a.u.)^3
     number of atoms/cell      =           64
     number of atomic types    =            1
     number of electrons       =       256.00
     number of Kohn-Sham states=          154
     kinetic-energy cutoff     =      30.0000  Ry
     charge density cutoff     =     120.0000  Ry
     scf convergence threshold =      1.0E-06
     mixing beta               =       0.5000
     number of iterations used =            8  plain     mixing
     Exchange-correlation= PBE
                           (   1   4   3   4   0   0   0)

     GPU acceleration is ACTIVE.
     GPU-aware MPI enabled

     Message from routine print_cuda_info:
     High GPU oversubscription detected. Are you sure this is what you want?

     celldm(1)=  20.658009  celldm(2)=   0.000000  celldm(3)=   0.000000
     celldm(4)=   0.000000  celldm(5)=   0.000000  celldm(6)=   0.000000

     crystal axes: (cart. coord. in units of alat)
               a(1) = (   1.000000   0.000000   0.000000 )  
               a(2) = (   0.000000   1.001102   0.000000 )  
               a(3) = (   0.000000   0.000000   1.004740 )  

     reciprocal axes: (cart. coord. in units 2 pi/alat)
               b(1) = (  1.000000  0.000000  0.000000 )  
               b(2) = (  0.000000  0.998899  0.000000 )  
               b(3) = (  0.000000  0.000000  0.995282 )  


     PseudoPot. # 1 for Si read from file:
     /home/ppiaggi/pseudos/Si_ONCV_PBE_sr.upf
     MD5 check sum: 8553c464762ac42b85b1eed164b4d029
     Pseudo is Norm-conserving, Zval =  4.0
     Generated using ONCVPSP code by D. R. Hamann
     Using radial grid of 1510 points,  4 beta functions with: 
                l(1) =   0
                l(2) =   0
                l(3) =   1
                l(4) =   1

     atomic species   valence    mass     pseudopotential
        Si             4.00    28.08500     Si( 1.00)

     No symmetry found



   Cartesian axes

     site n.     atom                  positions (alat units)
         1           Si  tau(   1) = (  -0.0043329   0.0043207   0.0060098  )
         2           Si  tau(   2) = (  -0.0044711   0.2512089   0.2503611  )
         3           Si  tau(   3) = (   0.2530386   0.0043722   0.2506161  )
         4           Si  tau(   4) = (   0.2471203   0.2485181  -0.0032677  )
         5           Si  tau(   5) = (   0.1179152   0.1207651   0.1238328  )
         6           Si  tau(   6) = (   0.5017223  -0.0027120  -0.0052767  )
         7           Si  tau(   7) = (   0.5013618   0.2622517   0.2481278  )
         8           Si  tau(   8) = (   0.6179673   0.1253013   0.1185803  )
         9           Si  tau(   9) = (   0.7423747  -0.0066725   0.2364945  )
        10           Si  tau(  10) = (   0.7322056   0.2555154   0.0084905  )
        11           Si  tau(  11) = (  -0.0064878   0.5091411  -0.0057291  )
        12           Si  tau(  12) = (   0.2493014   0.5142735   0.2380742  )
        13           Si  tau(  13) = (   0.1177408   0.6323369   0.1289457  )
        14           Si  tau(  14) = (   0.3610507   0.3843224   0.1198490  )
        15           Si  tau(  15) = (   0.4972325   0.5168764   0.0049658  )
        16           Si  tau(  16) = (   0.6207156   0.6395784   0.1213558  )
        17           Si  tau(  17) = (   0.8664005   0.3851770   0.1223546  )
        18           Si  tau(  18) = (   0.7329495   0.5070735   0.2449295  )
        19           Si  tau(  19) = (  -0.0063239   0.7622023   0.2381553  )
        20           Si  tau(  20) = (   0.2406276   0.7689743  -0.0073205  )
        21           Si  tau(  21) = (   0.3717257   0.8868650   0.1206298  )
        22           Si  tau(  22) = (   0.4845642   0.7669005   0.2358777  )
        23           Si  tau(  23) = (   0.7415529   0.7753707  -0.0038944  )
        24           Si  tau(  24) = (   0.8604601   0.9031697   0.1272105  )
        25           Si  tau(  25) = (   0.0062327   0.0024093   0.4840531  )
        26           Si  tau(  26) = (   0.2412483   0.2537675   0.4837700  )
        27           Si  tau(  27) = (   0.1144090   0.1304752   0.6163484  )
        28           Si  tau(  28) = (   0.3756360   0.1304037   0.3585295  )
        29           Si  tau(  29) = (   0.4912072   0.0071646   0.4820443  )
        30           Si  tau(  30) = (   0.6149282   0.1327706   0.6094489  )
        31           Si  tau(  31) = (   0.8634593   0.1278270   0.3671264  )
        32           Si  tau(  32) = (   0.7353946   0.2512204   0.4881864  )
        33           Si  tau(  33) = (   0.1200070   0.3894658   0.3682182  )
        34           Si  tau(  34) = (  -0.0060663   0.5156708   0.4852148  )
        35           Si  tau(  35) = (   0.1253330   0.6317227   0.6160529  )
        36           Si  tau(  36) = (   0.6195689   0.3883728   0.3647628  )
        37           Si  tau(  37) = (   0.3621530   0.6459458   0.3710096  )
        38           Si  tau(  38) = (   0.3760789   0.3822929   0.6110817  )
        39           Si  tau(  39) = (   0.4870482   0.5105013   0.4883756  )
        40           Si  tau(  40) = (   0.6143743   0.6467336   0.6038904  )
        41           Si  tau(  41) = (   0.8697420   0.6326391   0.3647798  )
        42           Si  tau(  42) = (   0.8635061   0.3802504   0.6051035  )
        43           Si  tau(  43) = (   0.1281960   0.8969574   0.3744745  )
        44           Si  tau(  44) = (   0.2507263   0.7630126   0.4860103  )
        45           Si  tau(  45) = (   0.6117159   0.8868359   0.3709877  )
        46           Si  tau(  46) = (   0.3779416   0.8952588   0.6087798  )
        47           Si  tau(  47) = (   0.7463032   0.7602156   0.4832453  )
        48           Si  tau(  48) = (   0.8679558   0.8920834   0.6089485  )
        49           Si  tau(  49) = (   0.0052286   0.2591955   0.7381041  )
        50           Si  tau(  50) = (   0.2460198   0.0085065   0.7335258  )
        51           Si  tau(  51) = (   0.3745592   0.1361308   0.8478656  )
        52           Si  tau(  52) = (   0.5016899   0.2621682   0.7354861  )
        53           Si  tau(  53) = (   0.7431172  -0.0040766   0.7311419  )
        54           Si  tau(  54) = (   0.8556752   0.1189392   0.8487617  )
        55           Si  tau(  55) = (   0.1276392   0.3859066   0.8633118  )
        56           Si  tau(  56) = (   0.2404188   0.5199244   0.7327998  )
        57           Si  tau(  57) = (   0.6233148   0.3901372   0.8591466  )
        58           Si  tau(  58) = (   0.3754218   0.6471773   0.8581396  )
        59           Si  tau(  59) = (   0.7423813   0.5168337   0.7246943  )
        60           Si  tau(  60) = (   0.8567097   0.6464515   0.8529367  )
        61           Si  tau(  61) = (  -0.0011288   0.7765561   0.7254997  )
        62           Si  tau(  62) = (   0.1148929   0.9032251   0.8558827  )
        63           Si  tau(  63) = (   0.5004238   0.7665221   0.7313476  )
        64           Si  tau(  64) = (   0.6070546   0.8996608   0.8580298  )

     number of k points=     1  Fermi-Dirac smearing, width (Ry)=  0.0100
                       cart. coord. in units 2pi/alat
        k(    1) = (   0.0000000   0.0000000   0.0000000), wk =   2.0000000

     Dense  grid:    98371 G-vectors     FFT dimensions: (  75,  75,  75)

     Estimated max dynamical RAM per process >     158.48 MB

     Estimated total dynamical RAM >     609.89 MB

     Initial potential from superposition of free atoms

     starting charge     255.9608, renormalised to     256.0000
     Starting wfcs are  256 randomized atomic wfcs

     total cpu time spent up to now is        4.9 secs

     Self-consistent Calculation

     iteration #  1     ecut=    30.00 Ry     beta= 0.50
     Davidson diagonalization with overlap
     ethr =  1.00E-02,  avg # of iterations =  3.0

     Threshold (ethr) on eigenvalues was too large:
     Diagonalizing with lowered threshold

     Davidson diagonalization with overlap
     ethr =  6.58E-04,  avg # of iterations =  4.0

     total cpu time spent up to now is        5.2 secs

     total energy              =    -503.41834405 Ry
     estimated scf accuracy    <       1.87073862 Ry

     iteration #  2     ecut=    30.00 Ry     beta= 0.50
     Davidson diagonalization with overlap
     ethr =  7.31E-04,  avg # of iterations =  2.0

     total cpu time spent up to now is        5.3 secs

     total energy              =    -503.39384244 Ry
     estimated scf accuracy    <       0.38637750 Ry

     iteration #  3     ecut=    30.00 Ry     beta= 0.50
     Davidson diagonalization with overlap
     ethr =  1.51E-04,  avg # of iterations = 12.0

     total cpu time spent up to now is        5.5 secs

     total energy              =    -503.32056943 Ry
     estimated scf accuracy    <       0.81123306 Ry

     iteration #  4     ecut=    30.00 Ry     beta= 0.50
     Davidson diagonalization with overlap
     ethr =  1.51E-04,  avg # of iterations =  4.0

     total cpu time spent up to now is        5.6 secs

     total energy              =    -503.44746351 Ry
     estimated scf accuracy    <       0.03504289 Ry

     iteration #  5     ecut=    30.00 Ry     beta= 0.50
     Davidson diagonalization with overlap
     ethr =  1.37E-05,  avg # of iterations = 17.0

     total cpu time spent up to now is        5.8 secs

     total energy              =    -503.44908539 Ry
     estimated scf accuracy    <       0.01632085 Ry

     iteration #  6     ecut=    30.00 Ry     beta= 0.50
     Davidson diagonalization with overlap
     ethr =  6.38E-06,  avg # of iterations =  5.0

     total cpu time spent up to now is        6.0 secs

     total energy              =    -503.45101255 Ry
     estimated scf accuracy    <       0.00320896 Ry

     iteration #  7     ecut=    30.00 Ry     beta= 0.50
     Davidson diagonalization with overlap
     ethr =  1.25E-06,  avg # of iterations = 14.0

     total cpu time spent up to now is        6.2 secs

     total energy              =    -503.45161325 Ry
     estimated scf accuracy    <       0.00052445 Ry

     iteration #  8     ecut=    30.00 Ry     beta= 0.50
     Davidson diagonalization with overlap
     ethr =  2.05E-07,  avg # of iterations =  3.0

     total cpu time spent up to now is        6.3 secs

     total energy              =    -503.45164161 Ry
     estimated scf accuracy    <       0.00018330 Ry

     iteration #  9     ecut=    30.00 Ry     beta= 0.50
     Davidson diagonalization with overlap
     ethr =  7.16E-08,  avg # of iterations =  3.0

     total cpu time spent up to now is        6.4 secs

     total energy              =    -503.45165778 Ry
     estimated scf accuracy    <       0.00004518 Ry

     iteration # 10     ecut=    30.00 Ry     beta= 0.50
     Davidson diagonalization with overlap
     ethr =  1.76E-08,  avg # of iterations =  4.0

     total cpu time spent up to now is        6.6 secs

     total energy              =    -503.45166523 Ry
     estimated scf accuracy    <       0.00000206 Ry

     iteration # 11     ecut=    30.00 Ry     beta= 0.50
     Davidson diagonalization with overlap
     ethr =  8.06E-10,  avg # of iterations =  4.0

     total cpu time spent up to now is        6.7 secs

     total energy              =    -503.45166595 Ry
     estimated scf accuracy    <       0.00000105 Ry

     iteration # 12     ecut=    30.00 Ry     beta= 0.50
     Davidson diagonalization with overlap
     ethr =  4.09E-10,  avg # of iterations =  3.0

     total cpu time spent up to now is        6.8 secs

     End of self-consistent calculation

          k = 0.0000 0.0000 0.0000 ( 12305 PWs)   bands (ev):

    -5.9742  -5.0269  -4.9792  -4.9695  -4.8820  -4.7728  -4.6907  -4.2714
    -4.0948  -4.0546  -4.0260  -3.9944  -3.9479  -3.8884  -3.8390  -3.7856
    -3.7491  -3.6593  -3.6019  -3.5725  -3.4816  -3.4066  -3.0936  -2.2068
    -2.0534  -2.0007  -1.9145  -1.8906  -1.8448  -1.7849  -1.7354  -1.7122
    -1.6273  -1.5808  -1.5574  -1.5296  -1.4919  -1.4400  -1.3979  -1.3320
    -1.1909  -1.0332  -0.9452  -0.8072  -0.7335   0.3230   0.3798   0.4048
     0.4459   0.4741   0.5019   0.5243   0.5778   0.6073   0.6107   0.6565
     0.7155   1.8789   1.9003   1.9143   1.9584   2.0066   2.0246   2.0686
     2.0863   2.1280   2.1411   2.1909   2.2043   2.2162   2.2281   2.2514
     2.2633   2.3146   2.3430   2.3701   2.4048   2.4195   2.4527   2.4853
     2.5191   2.5828   2.6182   2.6694   2.7692   2.8205   2.8641   3.0495
     3.1002   3.1574   3.1719   3.2306   3.3328   3.8699   3.9545   3.9813
     4.0058   4.0491   4.0738   4.1281   4.1893   4.2190   4.2539   4.2862
     4.3447   4.3887   4.4545   4.5172   4.5581   4.6125   4.6143   4.6400
     4.6945   4.7313   4.7616   4.7979   4.8431   4.8544   4.8829   4.9213
     4.9547   4.9844   5.0639   5.2332   5.6649   5.9895   6.0064   6.2832
     6.3465   6.4848   6.5454   6.6476   6.6894   6.8368   6.9845   7.0442
     7.1119   7.1310   7.1839   7.2471   7.2758   7.3013   7.3430   7.3823
     7.9974   8.0548   8.1427   8.1811   8.2408   8.2625   8.2874   8.3053
     8.3207   8.3352

     the Fermi energy is     6.2689 ev

!    total energy              =    -503.45166583 Ry
     estimated scf accuracy    <       0.00000040 Ry
     smearing contrib. (-TS)   =      -0.07120967 Ry
     internal energy E=F+TS    =    -503.38045616 Ry

     The total energy is F=E-TS. E is the sum of the following terms:
     one-electron contribution =     139.60695622 Ry
     hartree contribution      =      39.46636308 Ry
     xc contribution           =    -153.45542019 Ry
     ewald contribution        =    -528.99835526 Ry

     convergence has been achieved in  12 iterations

     Forces acting on atoms (cartesian axes, Ry/au):

     atom    1 type  1   force =    -0.02927153    0.01642197   -0.09051449
     atom    2 type  1   force =    -0.00722157    0.02848698   -0.01971209
     atom    3 type  1   force =    -0.01442064    0.01602256   -0.05043244
     atom    4 type  1   force =    -0.00576299    0.00711397   -0.04524258
     atom    5 type  1   force =     0.02995881    0.04614857    0.01625074
     atom    6 type  1   force =    -0.05874082    0.07215791   -0.01364506
     atom    7 type  1   force =    -0.02936397   -0.01440644   -0.05017141
     atom    8 type  1   force =    -0.02018212    0.00207287    0.02752116
     atom    9 type  1   force =    -0.11423683    0.13179299    0.13880125
     atom   10 type  1   force =     0.04647747    0.02347274   -0.09675466
     atom   11 type  1   force =    -0.01081394    0.00958077   -0.03588240
     atom   12 type  1   force =    -0.01867999   -0.01134491    0.05629718
     atom   13 type  1   force =    -0.00396348    0.02435982   -0.07937325
     atom   14 type  1   force =     0.05516587   -0.01489028   -0.01512073
     atom   15 type  1   force =    -0.02339816   -0.02678289   -0.07775096
     atom   16 type  1   force =    -0.00274048    0.03035265   -0.00145091
     atom   17 type  1   force =     0.00691201   -0.01942671   -0.00207163
     atom   18 type  1   force =     0.06849507    0.02989232   -0.02380078
     atom   19 type  1   force =    -0.00572050    0.03285440    0.04055087
     atom   20 type  1   force =    -0.00615285   -0.01722932   -0.02682264
     atom   21 type  1   force =    -0.04572859    0.01406753   -0.05291040
     atom   22 type  1   force =     0.05732960   -0.04811924    0.06081076
     atom   23 type  1   force =    -0.00918013   -0.02000983   -0.04122247
     atom   24 type  1   force =     0.12595995   -0.15312620   -0.11568416
     atom   25 type  1   force =    -0.09976096    0.07610429    0.06117884
     atom   26 type  1   force =     0.02202963    0.00492494    0.02798552
     atom   27 type  1   force =     0.03427969    0.00704494   -0.03180619
     atom   28 type  1   force =    -0.01494373    0.04701909    0.02337625
     atom   29 type  1   force =     0.02001067    0.05066260    0.02747964
     atom   30 type  1   force =    -0.00018521   -0.02908239    0.01751753
     atom   31 type  1   force =     0.01467939   -0.01888198   -0.01362655
     atom   32 type  1   force =     0.02695706    0.02747675   -0.01033952
     atom   33 type  1   force =     0.00584670   -0.00990067   -0.02701061
     atom   34 type  1   force =     0.00477196   -0.03099401    0.03925765
     atom   35 type  1   force =    -0.05921477    0.07467390   -0.06090256
     atom   36 type  1   force =    -0.02449654   -0.01656885    0.04856854
     atom   37 type  1   force =     0.05277471   -0.06166650   -0.07449164
     atom   38 type  1   force =    -0.05848101    0.00108928    0.00639962
     atom   39 type  1   force =     0.02550303    0.02452253   -0.01061517
     atom   40 type  1   force =     0.01297401   -0.04527384   -0.00040239
     atom   41 type  1   force =    -0.01499733    0.01611716   -0.03601935
     atom   42 type  1   force =     0.03338274    0.01168411    0.01764062
     atom   43 type  1   force =     0.01028843   -0.10490123   -0.07087263
     atom   44 type  1   force =    -0.04578172    0.03258768    0.08031299
     atom   45 type  1   force =     0.02885975   -0.04209935   -0.05477306
     atom   46 type  1   force =    -0.04320720   -0.05126360    0.01914620
     atom   47 type  1   force =     0.00014409    0.01802671    0.01160426
     atom   48 type  1   force =     0.02286209   -0.03866158   -0.05357013
     atom   49 type  1   force =    -0.07247437    0.00322470    0.01358095
     atom   50 type  1   force =     0.01495931    0.02388431   -0.00503708
     atom   51 type  1   force =    -0.00772793   -0.01409583    0.08208457
     atom   52 type  1   force =     0.00221733    0.00888051    0.00602997
     atom   53 type  1   force =    -0.05065068    0.04158740   -0.01159486
     atom   54 type  1   force =     0.06763413    0.07583551    0.09283792
     atom   55 type  1   force =    -0.01465458    0.00209268    0.04047934
     atom   56 type  1   force =     0.08525066   -0.06825288    0.06193326
     atom   57 type  1   force =    -0.00563722    0.00578180    0.05440309
     atom   58 type  1   force =    -0.02616591   -0.02235270    0.04078253
     atom   59 type  1   force =    -0.00677373   -0.01496691    0.01583314
     atom   60 type  1   force =     0.05160340    0.01155543    0.03959300
     atom   61 type  1   force =    -0.00965926   -0.05168443    0.04328689
     atom   62 type  1   force =     0.00006647   -0.04644066    0.05891853
     atom   63 type  1   force =    -0.02356614    0.01296319    0.01754586
     atom   64 type  1   force =     0.05656285   -0.07011433    0.01161614

     Total force =     0.631822     Total SCF correction =     0.001237


     Computing stress (Cartesian axis) and pressure

          total   stress  (Ry/bohr**3)                   (kbar)     P=       16.89
   0.00013810  -0.00001467  -0.00010184           20.32       -2.16      -14.98
  -0.00001467   0.00010007   0.00005609           -2.16       14.72        8.25
  -0.00010184   0.00005609   0.00010618          -14.98        8.25       15.62

 
     init_run     :      0.98s CPU      4.82s WALL (       1 calls)
     electrons    :      1.79s CPU      1.92s WALL (       1 calls)
     forces       :      0.04s CPU      0.05s WALL (       1 calls)
     stress       :      0.17s CPU      0.17s WALL (       1 calls)

     Called by init_run:
     wfcinit      :      0.56s CPU      4.24s WALL (       1 calls)
                                        4.24s GPU  (       1 calls)
     potinit      :      0.21s CPU      0.29s WALL (       1 calls)
     hinit0       :      0.19s CPU      0.21s WALL (       1 calls)

     Called by electrons:
     c_bands      :      1.17s CPU      1.23s WALL (      13 calls)
     sum_band     :      0.33s CPU      0.36s WALL (      13 calls)
     v_of_rho     :      0.15s CPU      0.25s WALL (      13 calls)
     mix_rho      :      0.12s CPU      0.13s WALL (      13 calls)

     Called by c_bands:
     init_us_2    :      0.05s CPU      0.05s WALL (      27 calls)
     init_us_2:gp :      0.05s CPU      0.05s WALL (      27 calls)
     regterg      :      1.06s CPU      1.12s WALL (      13 calls)

     Called by *egterg:
     rdiaghg      :      0.43s CPU      1.18s WALL (      90 calls)
                                        1.16s GPU  (      90 calls)
     h_psi        :      1.03s CPU      3.99s WALL (      92 calls)
                                        3.99s GPU  (      92 calls)
     g_psi        :      0.00s CPU      0.00s WALL (      78 calls)
                                        0.00s GPU  (      78 calls)

     Called by h_psi:
     h_psi:calbec :      0.51s CPU      3.38s WALL (      92 calls)
                                        3.38s GPU  (      92 calls)
     vloc_psi     :      0.47s CPU      0.55s WALL (      92 calls)
                                        0.55s GPU  (      92 calls)
     add_vuspsi   :      0.04s CPU      0.05s WALL (      92 calls)
                                        0.05s GPU  (      92 calls)

     General routines
     calbec       :      0.51s CPU      3.38s WALL (      97 calls)
     fft          :      0.29s CPU      0.41s WALL (     111 calls)
                                        0.12s GPU  (      71 calls)
     ffts         :      0.05s CPU      0.05s WALL (      13 calls)
     fftw         :      0.50s CPU      0.68s WALL (    1447 calls)
                                        0.62s GPU  (    1447 calls)
 
     Parallel routines
 
     PWSCF        :      3.03s CPU      7.05s WALL

 
   This run was terminated on:  11:23:11  10May2023            

=------------------------------------------------------------------------------=
   JOB DONE.
=------------------------------------------------------------------------------=
