-0.4116045626561492 0.5695566858253223 -0.8431413454598511 0.5981638080390537 3.8770639017128135 -0.8253264287656172 1.2327244095395866 0.7471319825420617 -0.11386875969671358 0.624918964645711 -0.008085348111295753 -1.5985723347859113 -0.43933982378788855 -0.2519655387028564 1.0420755674683406 -0.9700826220698067 -1.9261275350996248 -1.0295008161271237 -0.7236105023813538 0.2104360520005021 1.294774899013428 -0.5029674279408628 -0.6542056294249702 0.12885906245795872 -0.7290748679300347 -0.4761960733842896 -0.3638805171073088 0.04982926481730128 0.5375839895734676 0.6646203970003909 -0.8508034899907992 0.24800295451068255 -0.30290114921045896 -0.7104914485008925 -1.345362639263309 -0.020989714877789657 -1.9093986523807178 -0.14545630469500756 0.6865799319906175 0.46573039796627536 0.5645798014360213 -0.20458447831573154 -0.39092183749581705 -0.39509113838215826 -0.25086073567445183 0.39594525885233744 -0.760471122853129 0.08376679810501057 -0.14569387462711036 -0.5043164857695895 0.8183762227000293 -0.4001071035395109 0.20704965202677245 0.9704849997145479 0.6388610286480998 0.4714696144428977 -1.1077124887418601 1.5999766713326056 -1.1882535808207213 1.8105415356014884 -0.7786627061604913 0.44352249441066843 0.7664890469124348 0.001394052134049212 1.0916497788520425 -1.3713575206651738 0.5504281925259875 0.30462353121820435 1.2359136059008458 -0.8335848121196675 -1.9088574351652674 -1.026738165780322 0.3332972450038131 0.6534980618349843 -0.4688995397228763 1.6519939449401615 -2.3798202851750756 -0.17226442602678718 -0.03971017410542839 -0.49824791097800636 0.06921383999150016 -0.9165106023806215 0.3036776223651673 0.11879576468468572 -0.9483362315316507 0.058376897276996235 0.1786019382090408 -2.2420058132960423 -0.8175606687772694 2.3678618272616188 -0.3531929554864756 0.2970410908852562 -0.31793104696038793 0.21032780855741198 0.40389742381987853 0.5933609873337716 0.8484185346983906 -0.6141252164643165 -1.1148652977365574 -0.6394621525672084 0.14074218704878985 0.548375680872333 0.0328044481245306 0.21721939347092267 1.5221745754514624 -0.14265123114604464 0.9776010419340389 -0.1530153479891881 -0.4913578687263925 0.2954655188680202 -0.5345958534794213 -0.9770541682916334 1.958121057287086 -0.4949494427323928 0.4304659183370264 -0.22602645023959136 -0.2216686874915279 -0.295824959089968 -0.16016635721167255 -0.3625715684878982 -1.0138019173346282 2.9764455450824157 -0.0587947015407052 -0.5332390823412108 1.1658541300795986 0.7136533911686418 1.343457451820796 0.04313565484720958 -0.4035881201095759 0.9622420429794655 -1.0966199783731243 0.5580592267086841 0.9376419850425981 0.8511603591095858 -0.43901920722367616 0.08370843406324939 -0.19253808867415875 0.22176690363228904 2.889679555139765 -1.2807690716526394 -1.7594691424057052 -0.5575501482827495 -2.841429718994442 0.8150990946106542 -0.13011401791098237 -0.22790361265764622 0.3328563008116526 0.3489598912417345 -1.6351326504084482 0.3758690569277527 -0.7709452829115755 -0.2635655848356299 -0.5690792319682716 0.8222475327299775 1.996599158757626 1.174484552061087 -0.26132075466551125 0.2712269580356297 -0.19133558372562534 0.06489387245990759 0.07000933930960201 1.897647939602693 1.127557034271613 0.1954156673322699 0.20116979620722772 1.6045671189167656 -0.5596129443490492 -0.31768216417437545 1.447571960344223 0.9374959463830371 -0.807614356197835 0.32949175521479385 0.9549280258165553 -0.5416103371240414 -1.1327540050915201 0.07084803316081346 -0.9553057208709482 1.2941511493865 -0.5394824921477612 0.06938970344773211 0.09421241891836676 1.5599517942002359 -0.5767555175666067 -0.1764165005219478 -1.6581332250686798 -0.6947827795163841 -0.7247633850388745 -1.052587265632942 -0.21926496314604174 -0.8723069112802139 -0.06327202058576845 -0.8263648973324607
0.09373547928194824 0.2874477907698662 -0.9908121413076743 -0.17150595059420787 0.7909196691509733 -0.5052503104377685 1.4483826291709765 1.0823161601559423 -0.006374536067776118 0.17819596101987376 -0.992005390284827 -2.4811389761209206 0.9890190539629934 0.8436825626753018 1.5349930673723693 -0.39449464244873994 -1.18819521677896 -0.5718521667277183 -0.45140395404127426 -0.9362846996837553 0.7310093659485862 -0.1755459249915364 -0.848277638245152 0.3199843299449908 -0.4418049974989295 -0.0546012322846479 0.4746552112597309 0.030579158338437662 0.4024097835307585 0.4244158554882046 -0.8992124774218062 0.4399484039061649 -0.5146080975035847 0.07872717879857409 -0.23512892676149183 0.2632228567842306 -2.1455516495313502 -0.41591990220205144 0.21927421911742237 0.35077971805929264 0.1216887699617646 0.41665240949270177 -0.46130964319076034 0.35878741885511756 -0.6345359189101847 0.2203419982603044 -0.7455209293011998 0.15710031669183913 0.020187016470836202 -0.4740792841516029 0.7714006252814393 -0.00916649699061647 1.2499988803493183 1.680889544928589 -0.45087199279720414 -0.5169799401698709 -1.690318808662289 1.2615241073800982 -0.6791329887942691 1.1486236251339252 -2.516868825422362 0.28856030710775465 0.4255756801242606 0.3349147260025781 1.1111389979249058 -0.6496308655700941 0.1548269472766301 -0.39009162828503785 0.8603782781634279 -0.9926839044090903 -1.9755618784713525 -1.1521622344148028 0.15027146669546376 0.4108406879069311 -0.5251575908846569 1.0118036559576769 -0.3222795537370708 -0.5389531020068524 -0.21183241812739645 -0.5825093893312484 -0.08840481109765419 -1.6603153203216632 0.31763768408968523 0.025998223835974582 -0.7158498845993284 0.28811627759180053 0.10606623293315927 -0.6608570733032166 0.10293797171682272 0.7745039467971113 -0.24173691899631275 -0.38632881880849596 -0.06722123504150358 0.28225673348723 0.4257132341433894 0.27460718736177225 1.3703342216069818 0.14731135562587536 -0.762284521912784 -0.5183611367881137 0.4350375968681089 0.2643207178340996 -0.15343212381163254 1.1900500105995118 3.2074892460309403 0.0781319684167364 0.25879258892701884 0.2120360494977703 -1.7613666165387343 0.4774034634288294 -1.8156714006288859 -0.6171025539250856 4.7261475807990285 -1.014085252903002 0.37691780990724116 -0.6714495041070823 -0.44426065812827364 -0.21238726218960197 -0.42144417445439036 -0.755686299869976 0.6974770385190955 0.7809800414397582 0.9976124520589593 -0.49624579294631316 1.2038645478851009 0.6184205014055608 0.5588871219266182 -0.9988404109287896 -1.6477868488373493 1.0000647702541936 -0.8935113132719709 0.7180075543722796 -0.04555532003229574 0.2311426884202342 0.30447003635947567 0.42828999373163007 0.37088677322181285 0.20309272426155345 1.691876640067712 -4.293562302126154 0.07231664728653998 -0.283438412500157 -0.051534677544182214 0.23421155715354502 -0.09077948197741785 0.2979990839231513 0.10580989394797906 0.595507087142497 -0.6791214188300433 0.9371149088945346 1.1272703562691297 -0.2546243164819421 0.005807093600080322 1.0021586766687451 1.9836767942690032 1.1185049513716738 -0.5011208616504274 0.04452713587809751 -0.07438252867663318 0.031589344770506886 0.12154684506726164 1.5831842823656153 -0.43545591535245004 0.593177667678372 -0.16741892500902777 1.237477607953856 -0.569110085206207 -0.20628809127039957 0.2570609509478928 0.9881968151720143 -1.6544028114919702 0.20840616605466689 0.49406086947985234 -0.4910539643327285 0.709532684132049 -0.7457176186930383 0.3561520381147995 0.7035224733822271 -0.5601634175358804 0.20333877883408852 0.2838492747853305 1.0220639002331044 -0.6233606190196554 0.2675397389920296 -2.648634005783522 -0.813726896853476 -0.5595928897443911 -0.9101054701852261 -0.2739325298922508 -0.9555895706599542 0.5517044881352499 -0.5904782664693379
0.5439171308803471 0.02045878207498412 -0.5900283234161129 -1.1316312043409866 -0.870327676066656 -0.9175858377226712 0.44840373376236975 0.6909232965609778 0.3863321612426056 -0.2277287776426788 -0.5363123219498958 -0.6478442059833166 1.1309668312841104 0.49258531337559036 0.18221022438558943 0.656389010229534 -0.09767286666314147 -0.17173837831998812 -0.17382097188062967 -1.3576849082740876 0.4258165924904731 0.010243532104879133 -0.746376849543592 0.3990688920829837 -0.11685946689392132 0.4238777235965474 1.0627955736245114 -0.21057052069583734 0.34358062920769217 0.18259511852883392 -0.6954314688439764 0.8015851192846195 -0.3646644464611849 1.2264174934849523 1.0062009650589188 0.2512952521087092 -1.2052074350662403 -0.038101691967727926 -0.28264959805027445 0.24903679509183566 -0.30261755653176914 1.2838708505064147 -0.2496700578004603 0.8913029927667425 -0.4196945387531353 0.23075959404920257 -0.7854959270322408 -0.14004670364366203 1.175430203803808 -0.18433318426586318 0.8102739053078689 0.6467448022715506 0.8707429092272038 1.0270212442383795 -1.0832936935778632 -0.947851321475432 -1.5536819020311243 0.8944829331566206 -0.28560790934765 0.5916838567416649 -2.70499053019638 0.17416987057961617 -0.10050930767067205 0.2145318193364305 0.8279507537623418 0.1946592487822196 -0.904988460673635 -1.057688077194617 -0.20093274049575718 -0.037922486077386304 -0.7383704342993477 -0.466129690287223 -0.08386809956956523 0.13937127484319223 -0.5374685470415259 0.3514124665472851 1.4174854253714877 -1.565710036840252 -0.1962080813265782 -0.3275500581073907 -0.1345291162595425 -1.8020005880100127 0.12258917028884693 -0.15720830302461314 -0.28234080856060406 0.5415763985623124 -0.2517811906061922 0.07460981419609086 0.6621847909757047 -0.1715198345512788 -0.09464899223515312 -0.654037479278222 0.2175274116296447 0.42879752949566796 0.5141332147496952 0.012105525014282376 1.567487440455649 0.3315668925762677 -0.013934607803221163 -0.47539877429397476 0.28143140937245725 0.06320182946946536 -0.07734341107717002 0.254230166367317 1.7287030648674422 0.41023750710529344 -0.2788114552511069 0.6029437459262004 -2.5546730407543294 0.3477674135955301 -2.7309764127371805 -0.3281925767873961 1.877788738784921 -0.6193005900176689 0.0729041443588938 -1.745456373066381 -1.1053923252491156 0.14580880293841986 -0.6295852597731286 -0.7168765260916299 1.972714124609912 -0.5791263317916284 1.795188450184186 -0.42150356693741603 0.7821036135212401 0.3028003619665366 0.11282797713702504 -0.8608284783269691 -1.091562875565191 0.7987221959145275 -0.3497340504035977 1.0958003106853063 -1.3421153359706048 -0.8071281605900358 0.5927092126823856 0.4025874467592035 0.6015473797993058 0.28365901315139536 0.03280059146978867 -1.732767464744803 -0.3549698448812402 -0.20971434334312916 0.8541911755161096 0.092473324740073 -0.03830738022063081 0.7784032818515175 -0.10723711331280887 0.9511675303328586 1.020827713833158 1.6679155012664244 1.9583367728423178 -0.18631961856827267 0.2686347718284212 -0.26965807088661303 0.6308224746143394 0.5855890566978367 -0.36602610269540187 -0.2579634081575041 -0.06566828873208691 0.05502495008562781 0.5300498859799516 0.7429323426384172 -1.3551996799583885 0.7304794615870452 -0.3853410009739299 0.5281752946650581 -0.5488719037824612 -0.12190602817889329 -1.1341048626924597 1.1311113272817745 -2.5187675851069717 0.1019900059812566 -0.12296198024723337 -0.3975447421289734 1.4780428752395705 -1.2488508827878042 2.039221621413843 -0.031227076335081705 -0.3876336536628485 0.37250245444836494 0.3251777012204722 0.44573004358494844 -0.5825641538285838 1.4810060716329525 -2.390060731956161 0.6723031103566293 -0.20127649698842107 -0.6114378994401405 -0.2886641796754706 -0.6712325030002698 1.1287960488850366 -0.15940453934498353
1.092234704821235 -0.10742557517453112 0.6759468777568036 -1.6256105698506262 -1.2599415933843268 -1.094400345013986 -0.6252776335367102 0.454464852354785 0.8211136762358504 -0.36487887646483613 -0.31156653819494085 0.7027292880569704 0.745141177364278 0.14204265102776828 -1.335365418841281 1.4450728480714532 0.8503417198630324 0.3590316736554397 -0.5729109470095359 -1.1703494468467908 -0.5574025669612916 -0.04818504434565895 -0.5511195621660573 0.3013242916416423 0.2554910353576116 0.6433159790956597 0.8440232338441722 -0.4358868322422816 0.3933343035920516 0.11792827447806786 -0.05711217163195971 1.3688576370614554 -0.2302289183567132 1.7004584681994521 1.7136950214943842 0.29222490044353544 -0.13901234884187672 0.001648334236700387 -0.913834341100039 0.1639641336912079 -0.5653524179359877 1.7701330498774546 0.01000699061404083 0.8428382123971356 -0.17421820731904833 0.5526910204182353 -0.8566828315897118 -0.878811802278267 2.6385686511277204 0.16806350057156216 1.179506944976343 0.856053939756461 0.21105388809015907 0.07832737225699414 -1.1074697766034347 -0.9766409920136147 -0.4150254154122401 0.6061861641228979 0.06831652498821138 0.19509402232679304 -1.1055396494602574 -0.13774170965956922 -0.27885799221832624 -0.10829717914620704 0.5381244354579701 0.644256231521742 -1.8913065707656977 -0.6647805767273389 -1.1923200375806111 0.2252047256692444 0.3128574890922225 -0.22127248049437376 -0.25910317818890216 0.009010431028726418 -0.5548114091953477 0.06413025482100568 1.4660545925294428 -1.5563195967642873 -0.28838290098962593 0.08116638436768601 -0.09479940177008835 -1.0566724914459091 0.0837490574931977 -0.06056002097124409 0.18192277505215768 0.6608506455453136 -1.1632030656099968 0.22163089227505703 0.5090149196865233 -0.4978601886212845 0.1331828866442932 -0.2470524176719552 0.4649374697513347 0.5646931870854339 0.5079875068632734 -0.14938906409051048 0.8774951403493726 0.19248101018397817 0.40075913530121304 -0.3176423120753755 0.2305099399322417 0.07111774188243236 0.03128081239115258 -0.4831799609012904 0.5312536764800657 0.545310411683448 -0.47148478395154936 0.48099812275862325 -0.813153026627877 -0.08397814278486827 -1.7370720056574278 -0.1441118748519712 0.04508455104346429 -0.41609345166543826 0.12830704660923065 -2.053271928859322 -1.1006198435611367 0.7904309024400129 -0.9544456868634983 0.21552555070826754 0.9522473936605986 -0.9866132727349782 0.44026310693310633 -0.6052654520808415 -0.2911005570311051 -0.27685381730410386 -0.25539307632716657 -0.36566974779724765 0.18749486982329647 0.5946671077397049 0.42013702560719257 1.4170658213355658 -1.8448189687271195 -1.29759797028452 0.5770866756537802 0.27801055661636637 0.3114505814423668 0.453836988962799 -1.7926726257408672 0.4885977894827521 -1.239005357452292 -0.34301061563683505 0.6120878743193136 0.15393837402408975 -0.045594143690031154 0.7843515290151524 -0.25614872354626855 1.2031006731358829 1.5813557137973089 1.7358599876271976 0.9733530652909623 0.18190117778560283 0.2510507401980709 -1.2667897266544117 -0.600097791836973 0.6394199864753634 0.13139545572656725 -0.4962288236654487 -0.1665871731363518 0.33917195861703525 0.7501252608424307 -0.06122516535906875 -2.0737919031895444 0.8395410297031025 -0.6653495618569315 -0.48609559188618867 -0.7294165675401695 -0.2961923697317157 -1.5911459604148532 0.9862355776805852 -2.1631835036805 -0.0014094787530169275 -0.3996005962167376 -0.3497998706445266 1.2683087344020996 -1.2889035278343157 1.9149224104124247 -0.7601777599824262 -0.1337367022652342 1.1268754348235561 0.27600329637835047 -0.26044323715656437 -0.4232382902403356 1.7337372848572399 -1.657870458325596 1.3021179696420606 0.13786306572878193 -0.14461786795411222 -0.3603776461603729 0.30940192644345427 1.0962641376956024 0.5342628956200347
1.3427146601175006 -0.3003912383044117 2.0510517812795515 -0.6738704548437491 -1.0196576047844568 -0.8783531174742937 -1.069224617079307 0.3164740027988872 1.028705831029654 -0.21803057651830834 -0.3889947956764333 0.9999796667395552 0.31928190456132755 0.008651505027410907 -1.4230924871456203 1.1710639564153122 1.5002623487594033 1.1371642183440738 -1.4037832452940469 -0.6006531501198108 -1.4608090278597874 -0.23928820034550405 -0.5331616921360559 0.13090643190529067 0.6815984196156261 1.06325657242133 0.022390451880058216 -0.695354335749138 0.059760664998400305 0.1640968026143303 0.5293032376219142 1.462523953668365 -0.17304475583623746 0.5647919174468273 1.4230935155868847 0.6251130829343879 0.5453080976906028 -0.32606164648732233 -1.5580311801387554 -0.04380517011040842 -0.7674141298298655 1.412069396562239 0.2883548759651679 0.3622445241657826 0.153521083981013 0.683009698140856 -0.6226741344755922 -1.3634714330488775 2.311406315377052 0.5212199463931474 0.9884526399365621 -0.6245710943879889 0.7004044965785357 0.09688610909578799 -1.0762483566953078 -0.9245967218228657 0.7483753680308596 0.5856795595291139 0.31256772576594555 -0.2750761565783908 0.147214682147011 -0.1442625414972225 -0.20147755725563363 -0.3407308184637229 0.4247444424722169 0.7685744686865538 -1.0489512115422515 0.1756744801496007 -1.0044387309521734 -0.13414987854325283 1.1206505369597666 -0.3239777673751001 -0.30926694352748674 -0.04770861892987267 -0.6052500254618737 0.17198700399568445 0.37381628816378204 -0.2556355313552759 -0.5019970936077935 0.8928248287279075 -0.191071017210329 -0.2452349048472422 0.09132738406108788 -0.07159982372517347 0.67278853463348 0.5495216215513182 -2.11037355896832 0.44920771772090384 0.2521352315115012 -0.5610033969386726 0.449010256998117 0.6602369232207146 0.7409860175453239 0.6285550187364014 0.17886521917275647 -0.3520017633918518 -0.269758086799587 0.15392988938365748 0.5806417399948902 -0.07112005587527752 0.7252619219418477 0.18313942106807812 -0.013437099341512342 -0.39889457128864847 -0.7750600764108975 0.41727384512678456 -0.5583366487397868 0.006103541794576585 1.8787421038371257 -0.41713294867354617 -0.9581956408242336 -0.2295159514500886 -0.08152865280311121 -0.4174283684267779 1.648490302662277 -1.1346234542000913 -0.12120514545712675 -0.04091087928174889 -1.2851268344007027 1.5124015552250987 -0.0625431128395439 -1.1031192129442227 -0.8911294433033558 -0.9627896879528192 -1.5599939602920811 -1.0210128332607709 -0.4889657143451322 -0.34933732918581123 0.7149212021374719 0.5257348035443655 0.9865682784296558 1.1344825577468525 -0.5843150750814196 -0.618025322849671 0.5095111425966515 0.15714916765190357 -0.18131856580925546 0.6563363026147278 -2.6545390584140476 0.8824648256498221 -1.261963508910362 -0.44448357277235706 0.15179895908358373 0.09546660304044204 -0.2182241805863532 0.2808724515451937 -0.48870603292584225 0.7010177046825024 0.5583659593158254 0.9499763382382348 0.1409818138634217 0.14849046353564105 0.18343972591731636 -1.4587351760498941 -1.17878523631897 0.6923649141035109 0.5782500998342621 -0.31162798756049553 -0.1002164590206016 0.5423798683002143 0.5708784899605394 -0.42140920745139676 -1.5682428305644345 0.44139464943438816 -0.17008850142139093 -1.4106624889123833 -0.9334366887119989 -0.6569649373376621 -1.3952538676667972 0.3741718717309878 -1.1253523133108103 -0.19640811315252624 -0.7110990001779044 -0.38566238886909066 0.63757393440556 -0.5390420621762329 0.2950230320139629 -1.1685051945492007 0.13343125520967342 1.7345782927012965 0.4383666612413418 -1.2593967766244505 -0.15821566124320494 0.9230628016768425 -0.6943639468114107 0.5746294723625394 0.27459510317691416 0.24933041507285444 -0.36256179829588525 1.4580240089154826 0.8835498311838847 1.2325917406164644
0.15062807870393413 -1.2653856472180338 1.7005448572656712 0.7438265723179126 -0.8279342987021094 -0.8541047864498904 -1.0025222306557509 -0.06061735657174076 0.7500208740540825 -0.041251550450619276 -0.45517113439319035 1.034616025866502 -0.08888432183723402 -0.030820327814966273 -0.6806679373815568 0.253614387160189 0.9551015752799421 1.2178415788904833 -1.4430355059264501 0.1624718654163976 -0.45344978082670934 -0.5072701690812749 -0.7285220807503582 -0.3153509449380375 1.2111294569776303 2.151286752242914 -1.0230190650575222 -0.7936177848084267 -0.8628192835047527 0.2923400858651611 0.7561164454288591 0.45316413126549054 0.22342295117847327 -0.7251256534742995 1.170487772196868 1.1359676269328112 0.9606176200021649 -0.5103796612445339 -1.8558356315525972 -0.21531060648398404 -0.86806073440935 0.6911701224644613 0.5968265772848689 -0.24894989180498414 0.6575673468083514 0.34293271121104807 0.43642830656804843 -0.9443286530341541 0.6102040270330394 0.8600108675216802 0.2046891222143959 -1.6477778499762847 1.2024291009901549 0.16009410921284042 -0.4756921371646775 -1.0187474342653615 0.7855674037001246 0.8156302845237761 0.3304466629288954 -0.7733883451354293 0.6101839724283814 -0.02783424860344884 -0.12179264252948058 -0.4700215691424615 0.3935855003709093 0.7909443517413216 0.5596178294450556 1.0039409653801485 -0.12680680791462032 -0.38661549681097934 1.3278027760026743 -0.31449425336469705 -0.23889070779676924 -0.08653844731287676 -0.6018057756670152 0.3497114246957784 -0.33217984356991825 0.4655403934426563 -0.5296657631676556 1.6557266725097162 -0.6838414500135319 0.34095656132128377 -0.003087380676072102 -0.38204381827989686 0.7758663743622767 0.3345779114884496 -1.575487170831674 0.9115416884111204 0.23614631228241265 -0.5746364143410748 0.6904550986753076 1.5782019986596754 0.6427860747341188 0.6478904858402197 -0.3053591238326483 -0.46063061484586476 -1.3864828063423864 0.15367560728100632 0.6309070639083456 0.1402575341028875 1.473638832634604 0.27863790578772013 -0.04340973444420266 0.8999470415949855 -5.181566055316335 0.1095595907983984 -0.7281832093537008 -0.30986266812995666 3.3868933684263025 -0.2560461365301332 -0.9584326965357042 -0.2876629921044659 0.0595331223686265 -0.2749473443100104 2.3758651571820693 -0.4475658112421066 0.39764244404910226 -2.28987744016634 -1.311830054723502 1.99574349562555 -0.5495049093807698 -0.8252636938484819 -1.1764568452961093 -0.9372447496041795 -1.824529365240148 -0.9980755077383069 -0.4338656880471948 -0.4686108048378639 0.5182228114380365 0.31351414883961487 0.8414287336441186 0.46774357174156217 0.984627095542885 0.0904462670077152 0.5782876379404169 0.01981677761561103 -0.551402897734431 0.7322869471094292 -1.8750749393981836 0.5480146979884886 -0.1333428092609252 -0.11276395666830903 0.14424840042983544 0.03807572382579894 -0.2873179500602213 -0.11599171957698733 -0.7117916553695548 0.13642607617193922 -0.1039944380057951 0.7358571809591907 -0.07857599793269048 -0.08174693946150438 0.13907791197248953 -0.9385022761603644 -0.8514187549772949 0.11658564440724437 0.5987430775812914 0.09505908318937822 0.2871459432587313 0.23405806229481624 -0.24404602674546355 -0.4206962405447722 -0.6896254036851608 -1.0326751000900471 3.982242589834696 -0.8072433460116613 -0.7084188822425799 -0.2669414432863983 -0.9554376184631221 0.36396947727668927 -0.49801728302443915 -0.5796647207936017 -0.8594819916014036 -0.3942437027801985 0.11605496871475496 -0.22168642810334077 -0.7719927503394833 -0.9101823461697487 0.05684297713097307 1.2588838415437738 0.6923078356133302 -1.998871242621254 0.24201639790994445 -0.03809320732729569 0.219203513780487 0.005653084520719296 0.21463363502161745 0.4362758401505841 -0.2861766373669265 1.1157050200290333 0.6300786544697794 0.9661048683689812
-0.9396083647403496 -1.5226168051952036 0.3143253318870006 1.2924789038903999 -0.47012749859270647 -0.9321801905970786 -0.8013272376375425 -0.43613725769019074 0.228666973186232 -0.08416377643311311 -0.39751028934661214 0.9489700084609077 -0.392507436815382 -0.010565691330988254 -0.20959504415644548 -0.9824915372571207 -0.92057448803735 0.49875878917615396 -1.011126427384994 0.7531481068291546 0.7943029838009095 -0.7267127954557613 -0.8097476004907539 -0.7378341021799034 0.8090354049150777 2.0817474105911957 -1.427497558191851 -0.48107705562567465 -1.1524995631495636 0.4846269777604621 0.8955154881861933 -0.7405813259077375 0.7236614102239473 -1.1012875590521227 0.9400138277088842 1.3712595616347287 0.7883048572359456 -0.1540867266764959 -1.2057890186013234 -0.19929623333359872 -0.8895824105312099 0.17175740448338161 0.7588212459545318 -0.5303422204093899 0.6945053574852813 0.08319189943814706 1.4954361310153534 -0.33701737416787764 -1.0607559174866634 1.2751010747335847 -0.7045306029317673 -1.3087789266020042 0.3985269035365846 -1.9763859170345446 0.6164062991890095 -1.6672033056907483 0.6509421281823499 0.8633198772902551 0.34959881037731405 -1.0314551116400172 0.5877441553676265 -0.007097273166413584 -0.14452659379188657 -0.31847637794089667 0.4390940263256696 0.757261871887212 1.1078577560704728 1.1794172134760141 0.1402881302305068 -0.2135774258429612 0.6818642716825032 -0.15071832442489524 -0.11141772705305972 -0.04529846682648327 -0.4587354547056809 0.6522891291285476 -0.854936024101934 0.3603776461603729 0.09688585198547184 1.1725577673520193 -1.0484277349386135 0.7207542638794813 0.15776957484472182 -0.6775399332755364 1.2290035090445737 0.4565618440931299 1.540591387395753 1.3243664966276159 0.40334926462589243 -0.6372006102265413 0.4813007416007065 1.8810668953155603 -0.09986113256371189 0.5937032011645389 -0.5553336002474049 -0.3328614430179751 -1.4610514828878964 0.0805637177866806 0.20712344268750135 0.3943845992334369 1.2308091947947448 0.6913218175509772 0.6124557991816936 1.4224669377464791 -5.4974211935843 -0.47413070621482856 -0.8772629697339085 -0.13632708870022975 1.8795046930347632 0.22030137483035608 -0.19412728753814953 -0.19833335519969714 -0.09683597258414291 -0.014697968331806945 0.7920836075520874 -0.29434451788969956 0.7736549685332547 -2.1615559953794063 -0.901113551099261 1.095635760082984 -0.9463050600342346 -0.2328910385699086 -0.9442137247228448 -0.05434926417484188 -1.388415504588725 -0.09351924950608409 -0.2938102426527844 -0.40633020163108724 -0.17914649785860115 -0.244164811711515 -0.3004606580897664 -0.02595014420685854 1.7987121470667282 0.26981413684850303 0.4969029669143377 -0.018879353403006196 -0.7747332891990979 0.4430411838988757 -1.0989715093244363 0.3006372928769468 1.2075335120962558 0.5459719565268467 0.6881439340436277 0.2818283877005598 -0.21820721130548873 0.0031668277637558364 -0.4634074062600535 -0.2728194993337302 -0.17405468515799055 0.9027397738487744 -0.07171732313964423 -0.2732424458037617 0.15036171241642493 -0.5650377149090463 -0.26420810351563534 -0.9890347376922773 0.34664281307278366 0.2419582909784994 0.7730433030911847 -0.36796137204490176 -1.031492649746172 -0.31061651557684566 -0.5741003393319468 -1.1221867710986348 4.4326276156931534 0.5643514874752991 0.024546578991112563 0.3982227420326045 0.011112564973393763 1.3868548449698244 -0.21728212838805808 -0.7472911338277453 0.021535302968614525 -0.2849391654153996 0.11300358348294086 0.0022859678206992888 -0.8038646593474155 -0.2790063448707324 -0.2236399522852858 0.5229407857389962 0.5343721675043894 -1.4463848820146572 0.34092622230398056 -0.6746047619066123 0.7965465284194476 0.03443889840416004 0.0352541952166038 0.5009259720308018 -0.2932589981350046 -0.07392615786550495 0.11602900057282597 0.12732359965003878