An instance of this daemon is already running
An instance of this daemon is already running

     Program PWSCF v.7.1 starts on 11May2023 at 12: 9:56 

     This program is part of the open-source Quantum ESPRESSO suite
     for quantum simulation of materials; please cite
         "P. Giannozzi et al., J. Phys.:Condens. Matter 21 395502 (2009);
         "P. Giannozzi et al., J. Phys.:Condens. Matter 29 465901 (2017);
         "P. Giannozzi et al., J. Chem. Phys. 152 154105 (2020);
          URL http://www.quantum-espresso.org", 
     in publications or presentations arising from this work. More details at
     http://www.quantum-espresso.org/quote

     Parallel version (MPI & OpenMP), running on       4 processor cores
     Number of MPI processes:                 4
     Threads/MPI process:                     1

     MPI processes distributed on     1 nodes
     701376 MiB available memory on the printing compute node when the environment starts
 
     Reading input from pw-si-46.in
Warning: card &CELL ignored
Warning: card / ignored

     Current dimensions of program PWSCF are:
     Max number of different atomic species (ntypx) = 10
     Max number of k-points (npk) =  40000
     Max angular momentum in pseudopotentials (lmaxx) =  4

     IMPORTANT: XC functional enforced from input :
     Exchange-correlation= PBE
                           (   1   4   3   4   0   0   0)
     Any further DFT definition will be discarded
     Please, verify this is what you really want


     gamma-point specific algorithms are used
 
     K-points division:     npool     =       2
     R & G space division:  proc/nbgrp/npool/nimage =       2
     Subspace diagonalization in iterative solution of the eigenvalue problem:
     a serial algorithm will be used

     Message from routine divide_et_impera:
     suboptimal parallelization: some nodes have no k-points
 
     Parallelization info
     --------------------
     sticks:   dense  smooth     PW     G-vecs:    dense   smooth      PW
     Min        1953    1953    520                91863    91863   12584
     Max        1956    1956    521                91868    91868   12589
     Sum        3909    3909   1041               183731   183731   25173
 
     Using Slab Decomposition
 


     bravais-lattice index     =            0
     lattice parameter (alat)  =      20.2358  a.u.
     unit-cell volume          =    8286.3452 (a.u.)^3
     number of atoms/cell      =           64
     number of atomic types    =            1
     number of electrons       =       256.00
     number of Kohn-Sham states=          154
     kinetic-energy cutoff     =      30.0000  Ry
     charge density cutoff     =     120.0000  Ry
     scf convergence threshold =      1.0E-06
     mixing beta               =       0.5000
     number of iterations used =            8  plain     mixing
     Exchange-correlation= PBE
                           (   1   4   3   4   0   0   0)

     GPU acceleration is ACTIVE.
     GPU-aware MPI enabled

     Message from routine print_cuda_info:
     High GPU oversubscription detected. Are you sure this is what you want?

     celldm(1)=  20.235829  celldm(2)=   0.000000  celldm(3)=   0.000000
     celldm(4)=   0.000000  celldm(5)=   0.000000  celldm(6)=   0.000000

     crystal axes: (cart. coord. in units of alat)
               a(1) = (   1.000000   0.000000   0.000000 )  
               a(2) = (   0.000000   1.000000   0.000000 )  
               a(3) = (   0.000000   0.000000   1.000000 )  

     reciprocal axes: (cart. coord. in units 2 pi/alat)
               b(1) = (  1.000000  0.000000  0.000000 )  
               b(2) = (  0.000000  1.000000  0.000000 )  
               b(3) = (  0.000000  0.000000  1.000000 )  


     PseudoPot. # 1 for Si read from file:
     /home/ppiaggi/pseudos/Si_ONCV_PBE_sr.upf
     MD5 check sum: 8553c464762ac42b85b1eed164b4d029
     Pseudo is Norm-conserving, Zval =  4.0
     Generated using ONCVPSP code by D. R. Hamann
     Using radial grid of 1510 points,  4 beta functions with: 
                l(1) =   0
                l(2) =   0
                l(3) =   1
                l(4) =   1

     atomic species   valence    mass     pseudopotential
        Si             4.00    28.08500     Si( 1.00)

     No symmetry found



   Cartesian axes

     site n.     atom                  positions (alat units)
         1           Si  tau(   1) = (   0.3395300   0.3400650   0.6457880  )
         2           Si  tau(   2) = (   0.7406530   0.6587630   0.5875420  )
         3           Si  tau(   3) = (   0.1972550   0.2933400   0.7998150  )
         4           Si  tau(   4) = (   0.2713480   0.0370828   0.9999940  )
         5           Si  tau(   5) = (   0.9635680   0.8478100   0.1353420  )
         6           Si  tau(   6) = (   0.9407300   0.5087410   0.5843320  )
         7           Si  tau(   7) = (   0.1641970   0.2601600   0.1942780  )
         8           Si  tau(   8) = (   0.9307460   0.6523080   0.1589430  )
         9           Si  tau(   9) = (   0.3398670   0.5140870   0.4654230  )
        10           Si  tau(  10) = (   0.7544520   0.6476840   0.3199940  )
        11           Si  tau(  11) = (   0.0200971   0.1425170   0.0040209  )
        12           Si  tau(  12) = (   0.4256940   0.8945080   0.5378430  )
        13           Si  tau(  13) = (   0.8267370   0.0623534   0.7608700  )
        14           Si  tau(  14) = (   0.6060460   0.7352510   0.7713960  )
        15           Si  tau(  15) = (   0.0917262   0.8226600   0.8328730  )
        16           Si  tau(  16) = (   0.6820820   0.3282690   0.0459814  )
        17           Si  tau(  17) = (   0.5716140   0.1553890   0.5793550  )
        18           Si  tau(  18) = (   0.3914200   0.0965311   0.4756810  )
        19           Si  tau(  19) = (   0.4138870   0.9566460   0.7840190  )
        20           Si  tau(  20) = (   0.6458990   0.2997550   0.2831730  )
        21           Si  tau(  21) = (   0.2042340   0.4955280   0.9679510  )
        22           Si  tau(  22) = (   0.1880520   0.8334690   0.4726210  )
        23           Si  tau(  23) = (   0.2415620   0.5379000   0.7088280  )
        24           Si  tau(  24) = (   0.6590940   0.7997590   0.0007387  )
        25           Si  tau(  25) = (   0.6656740   0.4555760   0.6705530  )
        26           Si  tau(  26) = (   0.9044920   0.2840860   0.1371480  )
        27           Si  tau(  27) = (   0.4170430   0.8397210   0.9778840  )
        28           Si  tau(  28) = (   0.8299060   0.0731727   0.3787530  )
        29           Si  tau(  29) = (   0.6476910   0.9395010   0.6568470  )
        30           Si  tau(  30) = (   0.1799490   0.4894680   0.1977290  )
        31           Si  tau(  31) = (   0.9274980   0.3045000   0.8673920  )
        32           Si  tau(  32) = (   0.2188180   0.9037590   0.1679050  )
        33           Si  tau(  33) = (   0.5680130   0.1008080   0.9923270  )
        34           Si  tau(  34) = (   0.6857360   0.8280780   0.2387630  )
        35           Si  tau(  35) = (   0.4056420   0.3809000   0.2634650  )
        36           Si  tau(  36) = (   0.6983970   0.3334430   0.5017170  )
        37           Si  tau(  37) = (   0.6383930   0.5791990   0.9480510  )
        38           Si  tau(  38) = (   0.2957570   0.7925520   0.6706360  )
        39           Si  tau(  39) = (   0.6174240   0.8506100   0.4360280  )
        40           Si  tau(  40) = (   0.5926770   0.5671410   0.2138480  )
        41           Si  tau(  41) = (   0.0200997   0.6246710   0.9119840  )
        42           Si  tau(  42) = (   0.5425430   0.6092510   0.4849210  )
        43           Si  tau(  43) = (   0.3645560   0.6537390   0.1114080  )
        44           Si  tau(  44) = (   0.1562740   0.0866949   0.5091170  )
        45           Si  tau(  45) = (   0.0710855   0.7843030   0.2827440  )
        46           Si  tau(  46) = (   0.8626720   0.4852430   0.0392738  )
        47           Si  tau(  47) = (   0.4920810   0.4290280   0.0281479  )
        48           Si  tau(  48) = (   0.3841740   0.6628290   0.8105920  )
        49           Si  tau(  49) = (   0.0835570   0.0469289   0.2970910  )
        50           Si  tau(  50) = (   0.9756160   0.2365430   0.4769940  )
        51           Si  tau(  51) = (   0.3745830   0.1936960   0.8976760  )
        52           Si  tau(  52) = (   0.7574710   0.0038918   0.1312890  )
        53           Si  tau(  53) = (   0.9334310   0.9471230   0.9308160  )
        54           Si  tau(  54) = (   0.4773670   0.9516880   0.1816590  )
        55           Si  tau(  55) = (   0.1539150   0.0703546   0.8402340  )
        56           Si  tau(  56) = (   0.8608610   0.4126760   0.3875990  )
        57           Si  tau(  57) = (   0.8173400   0.8846160   0.4805680  )
        58           Si  tau(  58) = (   0.3542320   0.7865180   0.2867250  )
        59           Si  tau(  59) = (   0.0114765   0.1173180   0.6741400  )
        60           Si  tau(  60) = (   0.6181720   0.0757966   0.3335870  )
        61           Si  tau(  61) = (   0.6751980   0.2126120   0.8088190  )
        62           Si  tau(  62) = (   0.9424830   0.7103550   0.4764750  )
        63           Si  tau(  63) = (   0.4724570   0.4344690   0.7935370  )
        64           Si  tau(  64) = (   0.1269800   0.3954780   0.4066500  )

     number of k points=     1  Fermi-Dirac smearing, width (Ry)=  0.0100
                       cart. coord. in units 2pi/alat
        k(    1) = (   0.0000000   0.0000000   0.0000000), wk =   2.0000000

     Dense  grid:    91866 G-vectors     FFT dimensions: (  72,  72,  72)

     Estimated max dynamical RAM per process >     147.38 MB

     Estimated total dynamical RAM >     567.09 MB

     Initial potential from superposition of free atoms

     starting charge     255.9608, renormalised to     256.0000
     Starting wfcs are  256 randomized atomic wfcs

     total cpu time spent up to now is        4.5 secs

     Self-consistent Calculation

     iteration #  1     ecut=    30.00 Ry     beta= 0.50
     Davidson diagonalization with overlap
     ethr =  1.00E-02,  avg # of iterations =  3.0

     Threshold (ethr) on eigenvalues was too large:
     Diagonalizing with lowered threshold

     Davidson diagonalization with overlap
     ethr =  6.52E-04,  avg # of iterations =  4.0

     total cpu time spent up to now is        4.7 secs

     total energy              =    -500.19983668 Ry
     estimated scf accuracy    <       2.16366015 Ry

     iteration #  2     ecut=    30.00 Ry     beta= 0.50
     Davidson diagonalization with overlap
     ethr =  8.45E-04,  avg # of iterations =  5.0

     total cpu time spent up to now is        4.8 secs

     total energy              =    -498.90960539 Ry
     estimated scf accuracy    <      20.83667674 Ry

     iteration #  3     ecut=    30.00 Ry     beta= 0.50
     Davidson diagonalization with overlap
     ethr =  8.45E-04,  avg # of iterations =  4.0

     total cpu time spent up to now is        4.9 secs

     total energy              =    -500.62365425 Ry
     estimated scf accuracy    <       3.05566678 Ry

     iteration #  4     ecut=    30.00 Ry     beta= 0.50
     Davidson diagonalization with overlap
     ethr =  8.45E-04,  avg # of iterations =  2.0

     total cpu time spent up to now is        5.0 secs

     total energy              =    -500.87792169 Ry
     estimated scf accuracy    <       0.60122286 Ry

     iteration #  5     ecut=    30.00 Ry     beta= 0.50
     Davidson diagonalization with overlap
     ethr =  2.35E-04,  avg # of iterations =  2.0

     total cpu time spent up to now is        5.1 secs

     total energy              =    -500.88193898 Ry
     estimated scf accuracy    <       1.01460495 Ry

     iteration #  6     ecut=    30.00 Ry     beta= 0.50
     Davidson diagonalization with overlap
     ethr =  2.35E-04,  avg # of iterations =  2.0

     total cpu time spent up to now is        5.1 secs

     total energy              =    -500.95932664 Ry
     estimated scf accuracy    <       0.06918368 Ry

     iteration #  7     ecut=    30.00 Ry     beta= 0.50
     Davidson diagonalization with overlap
     ethr =  2.70E-05,  avg # of iterations =  3.0

     total cpu time spent up to now is        5.2 secs

     total energy              =    -500.96808989 Ry
     estimated scf accuracy    <       0.03951980 Ry

     iteration #  8     ecut=    30.00 Ry     beta= 0.50
     Davidson diagonalization with overlap
     c_bands:  1 eigenvalues not converged
     ethr =  1.54E-05,  avg # of iterations = 20.0

     total cpu time spent up to now is        5.4 secs

     total energy              =    -500.97103304 Ry
     estimated scf accuracy    <       0.04146633 Ry

     iteration #  9     ecut=    30.00 Ry     beta= 0.50
     Davidson diagonalization with overlap
     ethr =  1.54E-05,  avg # of iterations =  2.0

     total cpu time spent up to now is        5.5 secs

     total energy              =    -500.97414913 Ry
     estimated scf accuracy    <       0.00360973 Ry

     iteration # 10     ecut=    30.00 Ry     beta= 0.50
     Davidson diagonalization with overlap
     ethr =  1.41E-06,  avg # of iterations = 11.0

     total cpu time spent up to now is        5.6 secs

     total energy              =    -500.97455742 Ry
     estimated scf accuracy    <       0.00244872 Ry

     iteration # 11     ecut=    30.00 Ry     beta= 0.50
     Davidson diagonalization with overlap
     ethr =  9.57E-07,  avg # of iterations =  2.0

     total cpu time spent up to now is        5.7 secs

     total energy              =    -500.97472868 Ry
     estimated scf accuracy    <       0.00141336 Ry

     iteration # 12     ecut=    30.00 Ry     beta= 0.50
     Davidson diagonalization with overlap
     ethr =  5.52E-07,  avg # of iterations =  2.0

     total cpu time spent up to now is        5.8 secs

     total energy              =    -500.97482702 Ry
     estimated scf accuracy    <       0.00044583 Ry

     iteration # 13     ecut=    30.00 Ry     beta= 0.50
     Davidson diagonalization with overlap
     ethr =  1.74E-07,  avg # of iterations =  3.0

     total cpu time spent up to now is        5.9 secs

     total energy              =    -500.97484891 Ry
     estimated scf accuracy    <       0.00082522 Ry

     iteration # 14     ecut=    30.00 Ry     beta= 0.50
     Davidson diagonalization with overlap
     ethr =  1.74E-07,  avg # of iterations =  2.0

     total cpu time spent up to now is        6.0 secs

     total energy              =    -500.97489755 Ry
     estimated scf accuracy    <       0.00004666 Ry

     iteration # 15     ecut=    30.00 Ry     beta= 0.50
     Davidson diagonalization with overlap
     ethr =  1.82E-08,  avg # of iterations =  4.0

     total cpu time spent up to now is        6.1 secs

     total energy              =    -500.97490444 Ry
     estimated scf accuracy    <       0.00003055 Ry

     iteration # 16     ecut=    30.00 Ry     beta= 0.50
     Davidson diagonalization with overlap
     ethr =  1.19E-08,  avg # of iterations =  3.0

     total cpu time spent up to now is        6.2 secs

     total energy              =    -500.97490720 Ry
     estimated scf accuracy    <       0.00003660 Ry

     iteration # 17     ecut=    30.00 Ry     beta= 0.50
     Davidson diagonalization with overlap
     ethr =  1.19E-08,  avg # of iterations =  2.0

     total cpu time spent up to now is        6.2 secs

     total energy              =    -500.97490940 Ry
     estimated scf accuracy    <       0.00000356 Ry

     iteration # 18     ecut=    30.00 Ry     beta= 0.50
     Davidson diagonalization with overlap
     ethr =  1.39E-09,  avg # of iterations =  4.0

     total cpu time spent up to now is        6.3 secs

     total energy              =    -500.97490974 Ry
     estimated scf accuracy    <       0.00000471 Ry

     iteration # 19     ecut=    30.00 Ry     beta= 0.50
     Davidson diagonalization with overlap
     ethr =  1.39E-09,  avg # of iterations =  2.0

     total cpu time spent up to now is        6.4 secs

     End of self-consistent calculation

          k = 0.0000 0.0000 0.0000 ( 11492 PWs)   bands (ev):

    -6.0508  -5.3944  -5.1123  -4.8301  -4.8157  -4.5939  -4.3683  -4.1616
    -4.0599  -3.8059  -3.7694  -3.6509  -3.4573  -3.4132  -3.2434  -3.1229
    -2.9882  -2.9237  -2.6389  -2.4405  -2.3194  -2.2961  -2.2079  -1.9594
    -1.8610  -1.6644  -1.3889  -1.2702  -1.2036  -1.1087  -0.9708  -0.7914
    -0.7175  -0.5274  -0.4517  -0.4029  -0.2994  -0.2338  -0.1599  -0.0536
     0.0296   0.0815   0.1875   0.2378   0.2880   0.4742   0.5145   0.5565
     0.8037   0.8296   1.0606   1.1650   1.1892   1.2570   1.3174   1.4594
     1.6063   1.6557   1.8059   1.8578   1.9337   1.9627   2.1271   2.2168
     2.2817   2.3872   2.5395   2.6083   2.7144   2.7678   2.7715   2.8456
     2.9273   3.0248   3.0947   3.2104   3.2675   3.3823   3.4113   3.6676
     3.6860   3.8131   3.8377   3.9843   4.1107   4.1693   4.2826   4.3599
     4.4140   4.4753   4.5377   4.6012   4.6900   4.8073   4.8674   4.9380
     5.0004   5.1646   5.2121   5.2488   5.2675   5.3571   5.4020   5.4351
     5.5119   5.5348   5.5859   5.6023   5.7416   5.7612   5.8488   5.9392
     5.9447   6.0157   6.0525   6.0970   6.1623   6.2901   6.3499   6.4059
     6.4279   6.4849   6.5129   6.5871   6.6126   6.6758   6.7600   6.7785
     6.8872   6.9463   6.9787   7.0672   7.1516   7.2218   7.3096   7.3384
     7.4193   7.4989   7.5428   7.5653   7.6305   7.6676   7.7400   7.8253
     7.9047   7.9442   8.0712   8.1369   8.1717   8.2586   8.2923   8.3196
     8.4504   8.4856

     the Fermi energy is     6.8508 ev

!    total energy              =    -500.97490957 Ry
     estimated scf accuracy    <       0.00000072 Ry
     smearing contrib. (-TS)   =      -0.14493556 Ry
     internal energy E=F+TS    =    -500.82997401 Ry

     The total energy is F=E-TS. E is the sum of the following terms:
     one-electron contribution =     148.02197846 Ry
     hartree contribution      =      41.68204061 Ry
     xc contribution           =    -151.45495709 Ry
     ewald contribution        =    -539.07903599 Ry

     convergence has been achieved in  19 iterations

     Forces acting on atoms (cartesian axes, Ry/au):

     atom    1 type  1   force =     0.02202032   -0.00280601   -0.05489804
     atom    2 type  1   force =    -0.01729680   -0.01123584    0.01205222
     atom    3 type  1   force =    -0.04526554    0.01343197    0.04321492
     atom    4 type  1   force =     0.03651565   -0.04685771    0.08387550
     atom    5 type  1   force =    -0.08365176    0.13733100   -0.13251498
     atom    6 type  1   force =     0.00108663    0.01867103   -0.00080441
     atom    7 type  1   force =    -0.02708706   -0.02369030   -0.00252973
     atom    8 type  1   force =    -0.00899610   -0.07944464    0.02325298
     atom    9 type  1   force =    -0.01926218   -0.03446920    0.00151476
     atom   10 type  1   force =     0.09409035   -0.03798724    0.04474179
     atom   11 type  1   force =     0.00605209    0.02151850    0.01801251
     atom   12 type  1   force =     0.03936866    0.00649308   -0.01776261
     atom   13 type  1   force =    -0.03083960   -0.05093065    0.01744698
     atom   14 type  1   force =     0.00348124    0.01975396    0.01239584
     atom   15 type  1   force =     0.01022034   -0.00286529   -0.00524034
     atom   16 type  1   force =     0.03651384   -0.03136243    0.00683034
     atom   17 type  1   force =     0.02836434   -0.00254884    0.02288279
     atom   18 type  1   force =    -0.03593343    0.02339674   -0.00668622
     atom   19 type  1   force =     0.01301386    0.03782373    0.00694558
     atom   20 type  1   force =    -0.03435295    0.00847644   -0.02032379
     atom   21 type  1   force =    -0.02508621    0.01800799   -0.02330213
     atom   22 type  1   force =     0.01230743    0.00930060   -0.00159308
     atom   23 type  1   force =    -0.02263335   -0.01082166   -0.02118857
     atom   24 type  1   force =    -0.02082512    0.01392228   -0.02269165
     atom   25 type  1   force =    -0.00292467    0.02763977    0.01307582
     atom   26 type  1   force =     0.00578329    0.00569586    0.01040538
     atom   27 type  1   force =     0.03420487   -0.03050770    0.01452437
     atom   28 type  1   force =     0.06030819    0.01924691   -0.03470079
     atom   29 type  1   force =    -0.01000174    0.03035782    0.02035343
     atom   30 type  1   force =     0.01614308    0.00949991   -0.00778648
     atom   31 type  1   force =    -0.00520339    0.00297098    0.00551829
     atom   32 type  1   force =    -0.01218694    0.01595225   -0.01172941
     atom   33 type  1   force =     0.00332591    0.01394929   -0.01592941
     atom   34 type  1   force =    -0.00829521    0.02339792   -0.06272620
     atom   35 type  1   force =     0.00787835    0.02310615    0.00041718
     atom   36 type  1   force =    -0.02604162   -0.05408679    0.00353348
     atom   37 type  1   force =     0.02340426   -0.00641705    0.00444141
     atom   38 type  1   force =    -0.06345201    0.00658722    0.00537418
     atom   39 type  1   force =    -0.08408125   -0.02105772    0.02166190
     atom   40 type  1   force =    -0.07570496   -0.03938536   -0.01677041
     atom   41 type  1   force =     0.02500336   -0.01223481    0.02188529
     atom   42 type  1   force =     0.02284093    0.02468311   -0.02228912
     atom   43 type  1   force =    -0.00167433   -0.01949588   -0.00523678
     atom   44 type  1   force =     0.04473177   -0.03989777   -0.01938818
     atom   45 type  1   force =     0.04939471   -0.05965109    0.12154854
     atom   46 type  1   force =    -0.02723090   -0.02699465   -0.05327487
     atom   47 type  1   force =    -0.04116644    0.00976907    0.00203663
     atom   48 type  1   force =     0.06814668   -0.00931895    0.04639959
     atom   49 type  1   force =    -0.01285272    0.01946201    0.00121417
     atom   50 type  1   force =    -0.01865497   -0.00788111   -0.00447643
     atom   51 type  1   force =     0.04092589    0.00217032   -0.00415230
     atom   52 type  1   force =     0.02177732    0.00536052   -0.00044962
     atom   53 type  1   force =    -0.03014289    0.00365182   -0.00656726
     atom   54 type  1   force =     0.02570997    0.00996100   -0.00382143
     atom   55 type  1   force =    -0.03146909   -0.01127374   -0.07145192
     atom   56 type  1   force =     0.02512912    0.02046024   -0.03004965
     atom   57 type  1   force =     0.03392615    0.00946992    0.04108674
     atom   58 type  1   force =     0.00703000    0.00228286    0.05670640
     atom   59 type  1   force =     0.02404786    0.03236930   -0.01970757
     atom   60 type  1   force =    -0.04460727    0.00114238   -0.00429707
     atom   61 type  1   force =    -0.00720403    0.01364077    0.01246764
     atom   62 type  1   force =     0.01719051   -0.00956620   -0.00729362
     atom   63 type  1   force =     0.01904773    0.01198216    0.00983183
     atom   64 type  1   force =    -0.00486017    0.00985177    0.00598563

     Total force =     0.459595     Total SCF correction =     0.001590


     Computing stress (Cartesian axis) and pressure

          total   stress  (Ry/bohr**3)                   (kbar)     P=       -2.40
  -0.00005508   0.00001764   0.00005438           -8.10        2.59        8.00
   0.00001764   0.00005814  -0.00002416            2.59        8.55       -3.55
   0.00005438  -0.00002416  -0.00005190            8.00       -3.55       -7.64

 
     init_run     :      0.93s CPU      4.44s WALL (       1 calls)
     electrons    :      1.75s CPU      1.90s WALL (       1 calls)
     forces       :      0.03s CPU      0.03s WALL (       1 calls)
     stress       :      0.14s CPU      0.14s WALL (       1 calls)

     Called by init_run:
     wfcinit      :      0.42s CPU      3.78s WALL (       1 calls)
                                        3.78s GPU  (       1 calls)
     potinit      :      0.04s CPU      0.12s WALL (       1 calls)
     hinit0       :      0.45s CPU      0.48s WALL (       1 calls)

     Called by electrons:
     c_bands      :      1.15s CPU      1.22s WALL (      20 calls)
     sum_band     :      0.30s CPU      0.34s WALL (      20 calls)
     v_of_rho     :      0.12s CPU      0.22s WALL (      20 calls)
     mix_rho      :      0.14s CPU      0.17s WALL (      20 calls)

     Called by c_bands:
     init_us_2    :      0.05s CPU      0.05s WALL (      41 calls)
     init_us_2:gp :      0.05s CPU      0.05s WALL (      41 calls)
     regterg      :      1.01s CPU      1.07s WALL (      20 calls)

     Called by *egterg:
     rdiaghg      :      0.43s CPU      1.14s WALL (     101 calls)
                                        1.13s GPU  (     101 calls)
     h_psi        :      0.83s CPU      3.51s WALL (     103 calls)
                                        3.51s GPU  (     103 calls)
     g_psi        :      0.00s CPU      0.00s WALL (      82 calls)
                                        0.00s GPU  (      82 calls)

     Called by h_psi:
     h_psi:calbec :      0.41s CPU      3.02s WALL (     103 calls)
                                        3.01s GPU  (     103 calls)
     vloc_psi     :      0.37s CPU      0.43s WALL (     103 calls)
                                        0.43s GPU  (     103 calls)
     add_vuspsi   :      0.04s CPU      0.05s WALL (     103 calls)
                                        0.05s GPU  (     103 calls)

     General routines
     calbec       :      0.41s CPU      3.02s WALL (     108 calls)
     fft          :      0.55s CPU      0.66s WALL (     167 calls)
                                        0.12s GPU  (     106 calls)
     ffts         :      0.03s CPU      0.03s WALL (      20 calls)
     fftw         :      0.45s CPU      0.58s WALL (    2134 calls)
                                        0.51s GPU  (    2134 calls)
 
     Parallel routines
 
     PWSCF        :      2.88s CPU      6.59s WALL

 
   This run was terminated on:  12:10: 3  11May2023            

=------------------------------------------------------------------------------=
   JOB DONE.
=------------------------------------------------------------------------------=
