An instance of this daemon is already running
An instance of this daemon is already running

     Program PWSCF v.7.1 starts on 11May2023 at 12:12:16 

     This program is part of the open-source Quantum ESPRESSO suite
     for quantum simulation of materials; please cite
         "P. Giannozzi et al., J. Phys.:Condens. Matter 21 395502 (2009);
         "P. Giannozzi et al., J. Phys.:Condens. Matter 29 465901 (2017);
         "P. Giannozzi et al., J. Chem. Phys. 152 154105 (2020);
          URL http://www.quantum-espresso.org", 
     in publications or presentations arising from this work. More details at
     http://www.quantum-espresso.org/quote

     Parallel version (MPI & OpenMP), running on       4 processor cores
     Number of MPI processes:                 4
     Threads/MPI process:                     1

     MPI processes distributed on     1 nodes
     701362 MiB available memory on the printing compute node when the environment starts
 
     Reading input from pw-si-62.in
Warning: card &CELL ignored
Warning: card / ignored

     Current dimensions of program PWSCF are:
     Max number of different atomic species (ntypx) = 10
     Max number of k-points (npk) =  40000
     Max angular momentum in pseudopotentials (lmaxx) =  4

     IMPORTANT: XC functional enforced from input :
     Exchange-correlation= PBE
                           (   1   4   3   4   0   0   0)
     Any further DFT definition will be discarded
     Please, verify this is what you really want


     gamma-point specific algorithms are used
 
     K-points division:     npool     =       2
     R & G space division:  proc/nbgrp/npool/nimage =       2
     Subspace diagonalization in iterative solution of the eigenvalue problem:
     a serial algorithm will be used

     Message from routine divide_et_impera:
     suboptimal parallelization: some nodes have no k-points
 
     Parallelization info
     --------------------
     sticks:   dense  smooth     PW     G-vecs:    dense   smooth      PW
     Min        2003    2003    528                95853    95853   12909
     Max        2006    2006    529                95858    95858   12912
     Sum        4009    4009   1057               191711   191711   25821
 
     Using Slab Decomposition
 


     bravais-lattice index     =            0
     lattice parameter (alat)  =      20.5084  a.u.
     unit-cell volume          =    8625.6738 (a.u.)^3
     number of atoms/cell      =           64
     number of atomic types    =            1
     number of electrons       =       256.00
     number of Kohn-Sham states=          154
     kinetic-energy cutoff     =      30.0000  Ry
     charge density cutoff     =     120.0000  Ry
     scf convergence threshold =      1.0E-06
     mixing beta               =       0.5000
     number of iterations used =            8  plain     mixing
     Exchange-correlation= PBE
                           (   1   4   3   4   0   0   0)

     GPU acceleration is ACTIVE.
     GPU-aware MPI enabled

     Message from routine print_cuda_info:
     High GPU oversubscription detected. Are you sure this is what you want?

     celldm(1)=  20.508364  celldm(2)=   0.000000  celldm(3)=   0.000000
     celldm(4)=   0.000000  celldm(5)=   0.000000  celldm(6)=   0.000000

     crystal axes: (cart. coord. in units of alat)
               a(1) = (   1.000000   0.000000   0.000000 )  
               a(2) = (   0.000000   1.000000   0.000000 )  
               a(3) = (   0.000000   0.000000   1.000000 )  

     reciprocal axes: (cart. coord. in units 2 pi/alat)
               b(1) = (  1.000000  0.000000  0.000000 )  
               b(2) = (  0.000000  1.000000  0.000000 )  
               b(3) = (  0.000000  0.000000  1.000000 )  


     PseudoPot. # 1 for Si read from file:
     /home/ppiaggi/pseudos/Si_ONCV_PBE_sr.upf
     MD5 check sum: 8553c464762ac42b85b1eed164b4d029
     Pseudo is Norm-conserving, Zval =  4.0
     Generated using ONCVPSP code by D. R. Hamann
     Using radial grid of 1510 points,  4 beta functions with: 
                l(1) =   0
                l(2) =   0
                l(3) =   1
                l(4) =   1

     atomic species   valence    mass     pseudopotential
        Si             4.00    28.08500     Si( 1.00)

     No symmetry found



   Cartesian axes

     site n.     atom                  positions (alat units)
         1           Si  tau(   1) = (   0.2900520   0.2063750   0.7419540  )
         2           Si  tau(   2) = (   0.8448750   0.6680980   0.5903010  )
         3           Si  tau(   3) = (   0.0729320   0.3372410   0.7922370  )
         4           Si  tau(   4) = (   0.3515930   0.9597710   0.0835858  )
         5           Si  tau(   5) = (   0.9340020   0.0082017   0.1640990  )
         6           Si  tau(   6) = (   0.2028640   0.5039970   0.5176180  )
         7           Si  tau(   7) = (   0.1908760   0.1889530   0.1639480  )
         8           Si  tau(   8) = (   0.9651960   0.6425950   0.0590844  )
         9           Si  tau(   9) = (   0.4165500   0.4490750   0.6164880  )
        10           Si  tau(  10) = (   0.7562100   0.6284510   0.2572360  )
        11           Si  tau(  11) = (   0.9285690   0.1198880   0.9790950  )
        12           Si  tau(  12) = (   0.3586320   0.8813770   0.5484890  )
        13           Si  tau(  13) = (   0.9110760   0.9660730   0.6692050  )
        14           Si  tau(  14) = (   0.6495160   0.7545500   0.6792570  )
        15           Si  tau(  15) = (   0.0596365   0.9224870   0.8003680  )
        16           Si  tau(  16) = (   0.6338540   0.3578050   0.0254950  )
        17           Si  tau(  17) = (   0.6399960   0.1083660   0.5700970  )
        18           Si  tau(  18) = (   0.4229920   0.0926722   0.6221030  )
        19           Si  tau(  19) = (   0.5390700   0.0099472   0.9367360  )
        20           Si  tau(  20) = (   0.5952440   0.3294670   0.2976490  )
        21           Si  tau(  21) = (   0.1321100   0.5208310   0.8997080  )
        22           Si  tau(  22) = (   0.1470830   0.8301420   0.4176570  )
        23           Si  tau(  23) = (   0.1696200   0.6440870   0.6820680  )
        24           Si  tau(  24) = (   0.6809810   0.8130900   0.9317350  )
        25           Si  tau(  25) = (   0.6644070   0.3874340   0.8157330  )
        26           Si  tau(  26) = (   0.0048088   0.2854570   0.1122390  )
        27           Si  tau(  27) = (   0.3840580   0.7978810   0.9118320  )
        28           Si  tau(  28) = (   0.9778670   0.0054085   0.3919270  )
        29           Si  tau(  29) = (   0.5008210   0.9051050   0.7383270  )
        30           Si  tau(  30) = (   0.2863350   0.4566440   0.0639167  )
        31           Si  tau(  31) = (   0.8921070   0.4659830   0.7879630  )
        32           Si  tau(  32) = (   0.0142548   0.8271270   0.1249400  )
        33           Si  tau(  33) = (   0.7323240   0.1359260   0.9732710  )
        34           Si  tau(  34) = (   0.6653290   0.7522460   0.1269570  )
        35           Si  tau(  35) = (   0.4515500   0.5296930   0.4080100  )
        36           Si  tau(  36) = (   0.6433530   0.3589400   0.5874280  )
        37           Si  tau(  37) = (   0.7454770   0.6019590   0.8810670  )
        38           Si  tau(  38) = (   0.1793480   0.8645230   0.6440710  )
        39           Si  tau(  39) = (   0.5245600   0.7557780   0.4632160  )
        40           Si  tau(  40) = (   0.5390410   0.5822380   0.1982920  )
        41           Si  tau(  41) = (   0.0108216   0.6976240   0.8588570  )
        42           Si  tau(  42) = (   0.6359330   0.5748970   0.5591850  )
        43           Si  tau(  43) = (   0.3274470   0.6627360   0.1111080  )
        44           Si  tau(  44) = (   0.1523420   0.2558050   0.5638530  )
        45           Si  tau(  45) = (   0.1083530   0.6403470   0.2461800  )
        46           Si  tau(  46) = (   0.8467720   0.4647920   0.0406105  )
        47           Si  tau(  47) = (   0.3875160   0.3067420   0.2363120  )
        48           Si  tau(  48) = (   0.4899900   0.6291270   0.8685570  )
        49           Si  tau(  49) = (   0.1668610   0.9853560   0.2389120  )
        50           Si  tau(  50) = (   0.9209380   0.2497260   0.4246310  )
        51           Si  tau(  51) = (   0.2980280   0.2248580   0.9998450  )
        52           Si  tau(  52) = (   0.6957170   0.0504279   0.1904230  )
        53           Si  tau(  53) = (   0.8626630   0.9027010   0.8799470  )
        54           Si  tau(  54) = (   0.4949640   0.1217920   0.1234410  )
        55           Si  tau(  55) = (   0.1363670   0.1062950   0.9138080  )
        56           Si  tau(  56) = (   0.7759370   0.4331450   0.3796360  )
        57           Si  tau(  57) = (   0.7218040   0.8923030   0.4914200  )
        58           Si  tau(  58) = (   0.3108640   0.6814860   0.3397970  )
        59           Si  tau(  59) = (   0.9830610   0.1770760   0.6616120  )
        60           Si  tau(  60) = (   0.7476910   0.1445760   0.3602760  )
        61           Si  tau(  61) = (   0.7736690   0.1674770   0.7426250  )
        62           Si  tau(  62) = (   0.9323250   0.6920980   0.3849220  )
        63           Si  tau(  63) = (   0.4376770   0.3997330   0.8134360  )
        64           Si  tau(  64) = (   0.1153150   0.3419140   0.3130950  )

     number of k points=     1  Fermi-Dirac smearing, width (Ry)=  0.0100
                       cart. coord. in units 2pi/alat
        k(    1) = (   0.0000000   0.0000000   0.0000000), wk =   2.0000000

     Dense  grid:    95856 G-vectors     FFT dimensions: (  72,  72,  72)

     Estimated max dynamical RAM per process >     152.81 MB

     Estimated total dynamical RAM >     587.82 MB

     Initial potential from superposition of free atoms

     starting charge     255.9608, renormalised to     256.0000
     Starting wfcs are  256 randomized atomic wfcs

     total cpu time spent up to now is        4.5 secs

     Self-consistent Calculation

     iteration #  1     ecut=    30.00 Ry     beta= 0.50
     Davidson diagonalization with overlap
     ethr =  1.00E-02,  avg # of iterations =  3.0

     Threshold (ethr) on eigenvalues was too large:
     Diagonalizing with lowered threshold

     Davidson diagonalization with overlap
     ethr =  5.81E-04,  avg # of iterations =  4.0

     total cpu time spent up to now is        4.6 secs

     total energy              =    -500.39150720 Ry
     estimated scf accuracy    <       1.89077497 Ry

     iteration #  2     ecut=    30.00 Ry     beta= 0.50
     Davidson diagonalization with overlap
     ethr =  7.39E-04,  avg # of iterations =  5.0

     total cpu time spent up to now is        4.8 secs

     total energy              =    -499.41289716 Ry
     estimated scf accuracy    <      14.12030790 Ry

     iteration #  3     ecut=    30.00 Ry     beta= 0.50
     Davidson diagonalization with overlap
     ethr =  7.39E-04,  avg # of iterations =  4.0

     total cpu time spent up to now is        4.9 secs

     total energy              =    -500.68283375 Ry
     estimated scf accuracy    <       2.45943192 Ry

     iteration #  4     ecut=    30.00 Ry     beta= 0.50
     Davidson diagonalization with overlap
     ethr =  7.39E-04,  avg # of iterations =  2.0

     total cpu time spent up to now is        4.9 secs

     total energy              =    -500.84953809 Ry
     estimated scf accuracy    <       0.77183382 Ry

     iteration #  5     ecut=    30.00 Ry     beta= 0.50
     Davidson diagonalization with overlap
     ethr =  3.01E-04,  avg # of iterations =  2.0

     total cpu time spent up to now is        5.0 secs

     total energy              =    -500.88804942 Ry
     estimated scf accuracy    <       0.56154259 Ry

     iteration #  6     ecut=    30.00 Ry     beta= 0.50
     Davidson diagonalization with overlap
     ethr =  2.19E-04,  avg # of iterations =  2.0

     total cpu time spent up to now is        5.1 secs

     total energy              =    -500.94258905 Ry
     estimated scf accuracy    <       0.10538874 Ry

     iteration #  7     ecut=    30.00 Ry     beta= 0.50
     Davidson diagonalization with overlap
     ethr =  4.12E-05,  avg # of iterations =  2.0

     total cpu time spent up to now is        5.2 secs

     total energy              =    -500.95247501 Ry
     estimated scf accuracy    <       0.02521760 Ry

     iteration #  8     ecut=    30.00 Ry     beta= 0.50
     Davidson diagonalization with overlap
     c_bands:  2 eigenvalues not converged
     ethr =  9.85E-06,  avg # of iterations = 20.0

     total cpu time spent up to now is        5.4 secs

     total energy              =    -500.95501556 Ry
     estimated scf accuracy    <       0.03146342 Ry

     iteration #  9     ecut=    30.00 Ry     beta= 0.50
     Davidson diagonalization with overlap
     ethr =  9.85E-06,  avg # of iterations =  3.0

     total cpu time spent up to now is        5.5 secs

     total energy              =    -500.95731482 Ry
     estimated scf accuracy    <       0.00184700 Ry

     iteration # 10     ecut=    30.00 Ry     beta= 0.50
     Davidson diagonalization with overlap
     ethr =  7.21E-07,  avg # of iterations = 12.0

     total cpu time spent up to now is        5.6 secs

     total energy              =    -500.95757787 Ry
     estimated scf accuracy    <       0.00186054 Ry

     iteration # 11     ecut=    30.00 Ry     beta= 0.50
     Davidson diagonalization with overlap
     ethr =  7.21E-07,  avg # of iterations =  2.0

     total cpu time spent up to now is        5.7 secs

     total energy              =    -500.95767948 Ry
     estimated scf accuracy    <       0.00142564 Ry

     iteration # 12     ecut=    30.00 Ry     beta= 0.50
     Davidson diagonalization with overlap
     ethr =  5.57E-07,  avg # of iterations =  2.0

     total cpu time spent up to now is        5.8 secs

     total energy              =    -500.95779406 Ry
     estimated scf accuracy    <       0.00039791 Ry

     iteration # 13     ecut=    30.00 Ry     beta= 0.50
     Davidson diagonalization with overlap
     ethr =  1.55E-07,  avg # of iterations =  2.0

     total cpu time spent up to now is        5.9 secs

     total energy              =    -500.95783009 Ry
     estimated scf accuracy    <       0.00009839 Ry

     iteration # 14     ecut=    30.00 Ry     beta= 0.50
     Davidson diagonalization with overlap
     ethr =  3.84E-08,  avg # of iterations =  2.0

     total cpu time spent up to now is        5.9 secs

     total energy              =    -500.95783965 Ry
     estimated scf accuracy    <       0.00003496 Ry

     iteration # 15     ecut=    30.00 Ry     beta= 0.50
     Davidson diagonalization with overlap
     ethr =  1.37E-08,  avg # of iterations =  3.0

     total cpu time spent up to now is        6.0 secs

     total energy              =    -500.95784162 Ry
     estimated scf accuracy    <       0.00003884 Ry

     iteration # 16     ecut=    30.00 Ry     beta= 0.50
     Davidson diagonalization with overlap
     ethr =  1.37E-08,  avg # of iterations =  2.0

     total cpu time spent up to now is        6.1 secs

     total energy              =    -500.95784516 Ry
     estimated scf accuracy    <       0.00000883 Ry

     iteration # 17     ecut=    30.00 Ry     beta= 0.50
     Davidson diagonalization with overlap
     ethr =  3.45E-09,  avg # of iterations =  2.0

     total cpu time spent up to now is        6.2 secs

     total energy              =    -500.95784581 Ry
     estimated scf accuracy    <       0.00000139 Ry

     iteration # 18     ecut=    30.00 Ry     beta= 0.50
     Davidson diagonalization with overlap
     ethr =  5.45E-10,  avg # of iterations =  4.0

     total cpu time spent up to now is        6.3 secs

     total energy              =    -500.95784600 Ry
     estimated scf accuracy    <       0.00000254 Ry

     iteration # 19     ecut=    30.00 Ry     beta= 0.50
     Davidson diagonalization with overlap
     ethr =  5.45E-10,  avg # of iterations =  2.0

     total cpu time spent up to now is        6.4 secs

     End of self-consistent calculation

          k = 0.0000 0.0000 0.0000 ( 11924 PWs)   bands (ev):

    -6.1672  -5.4771  -5.3160  -5.0986  -4.9997  -4.9048  -4.7521  -4.4011
    -4.3853  -4.2143  -4.1169  -3.9287  -3.8524  -3.7004  -3.6778  -3.6045
    -3.2910  -3.1894  -3.1285  -2.9841  -2.8236  -2.7514  -2.4612  -2.3911
    -2.1606  -2.0578  -1.8987  -1.7895  -1.7107  -1.5880  -1.3487  -1.3056
    -1.1470  -1.0211  -0.9646  -0.8443  -0.7826  -0.6941  -0.6613  -0.5107
    -0.3887  -0.3399  -0.2841  -0.1073  -0.0398   0.0520   0.2599   0.3267
     0.3688   0.5296   0.6268   0.7302   0.8332   0.8805   0.9967   1.0778
     1.1125   1.2503   1.3519   1.4788   1.5879   1.6399   1.8170   1.8414
     1.9223   1.9845   2.0853   2.1237   2.3016   2.4399   2.5093   2.5236
     2.5952   2.6191   2.8017   2.8280   2.9125   3.0960   3.1844   3.3367
     3.4203   3.4614   3.4990   3.6300   3.6796   3.7202   3.8054   3.8823
     3.9823   3.9977   4.1175   4.1403   4.3145   4.3474   4.4065   4.4579
     4.5312   4.5536   4.6490   4.7188   4.7931   4.8888   4.9186   4.9790
     5.0335   5.1004   5.1647   5.1886   5.2638   5.3325   5.4168   5.5126
     5.5274   5.5860   5.6526   5.7086   5.7762   5.7802   5.8504   5.9345
     6.0246   6.0634   6.0933   6.1509   6.2048   6.2693   6.3233   6.3770
     6.4645   6.5468   6.5998   6.6286   6.6610   6.7869   6.8240   6.8990
     6.9315   7.0177   7.0562   7.1862   7.2455   7.2709   7.2955   7.3965
     7.4449   7.4855   7.5820   7.7107   7.7439   7.8363   7.8676   7.9175
     7.9374   8.0121

     the Fermi energy is     6.4284 ev

!    total energy              =    -500.95784584 Ry
     estimated scf accuracy    <       0.00000049 Ry
     smearing contrib. (-TS)   =      -0.14779061 Ry
     internal energy E=F+TS    =    -500.81005524 Ry

     The total energy is F=E-TS. E is the sum of the following terms:
     one-electron contribution =     131.10362266 Ry
     hartree contribution      =      46.01211500 Ry
     xc contribution           =    -150.90999063 Ry
     ewald contribution        =    -527.01580227 Ry

     convergence has been achieved in  19 iterations

     Forces acting on atoms (cartesian axes, Ry/au):

     atom    1 type  1   force =    -0.01288246    0.03704321    0.03933331
     atom    2 type  1   force =     0.00124523    0.00519391    0.01566603
     atom    3 type  1   force =     0.00943650   -0.02475117   -0.02228269
     atom    4 type  1   force =    -0.01629288   -0.00002874   -0.00872644
     atom    5 type  1   force =    -0.03378351    0.01072019    0.05731160
     atom    6 type  1   force =     0.02358068   -0.03976769   -0.00654712
     atom    7 type  1   force =    -0.03585121   -0.03378791    0.08189087
     atom    8 type  1   force =    -0.00215562   -0.06994208    0.00640589
     atom    9 type  1   force =    -0.01589282    0.00734517   -0.07863377
     atom   10 type  1   force =     0.05112564   -0.03759853    0.04177175
     atom   11 type  1   force =     0.09589333   -0.01193177   -0.00426668
     atom   12 type  1   force =     0.06002647    0.04158704   -0.00741897
     atom   13 type  1   force =    -0.08884876    0.01296336   -0.06193384
     atom   14 type  1   force =     0.00630565    0.01099420    0.02101203
     atom   15 type  1   force =     0.09202623    0.01248762    0.08932489
     atom   16 type  1   force =     0.02468058   -0.01445808    0.04001619
     atom   17 type  1   force =     0.01324931    0.00347797   -0.01791324
     atom   18 type  1   force =     0.04015055   -0.05493618   -0.02762383
     atom   19 type  1   force =     0.03086977   -0.02631177   -0.01467086
     atom   20 type  1   force =     0.01932192   -0.00007013    0.00864125
     atom   21 type  1   force =     0.01721254   -0.00002567    0.02087541
     atom   22 type  1   force =    -0.01210125   -0.00044966   -0.02309074
     atom   23 type  1   force =    -0.00663823    0.00434845    0.02532001
     atom   24 type  1   force =    -0.04379066    0.01181387   -0.04266647
     atom   25 type  1   force =     0.00654440   -0.00360176   -0.04118393
     atom   26 type  1   force =    -0.02419841    0.04050390   -0.00761656
     atom   27 type  1   force =    -0.03929769    0.06410336    0.02972580
     atom   28 type  1   force =    -0.01532734    0.01104873   -0.01722775
     atom   29 type  1   force =    -0.01201315    0.02069978    0.01289115
     atom   30 type  1   force =    -0.00833888   -0.02846180   -0.01631536
     atom   31 type  1   force =    -0.00158755    0.01909086   -0.00397362
     atom   32 type  1   force =     0.05682307    0.01912591    0.02908302
     atom   33 type  1   force =    -0.11081916    0.02953963   -0.01471327
     atom   34 type  1   force =    -0.01874320    0.02656569    0.01718500
     atom   35 type  1   force =     0.01493922   -0.00924525   -0.01257147
     atom   36 type  1   force =    -0.02488209   -0.02393325    0.00095242
     atom   37 type  1   force =    -0.01777405   -0.01055328   -0.00691734
     atom   38 type  1   force =    -0.00762846   -0.05862203   -0.01959222
     atom   39 type  1   force =     0.01167536   -0.00020377   -0.00333173
     atom   40 type  1   force =    -0.01528501   -0.01137680   -0.00076662
     atom   41 type  1   force =    -0.01820006    0.02147127   -0.04853614
     atom   42 type  1   force =    -0.01041397    0.00539970   -0.02950155
     atom   43 type  1   force =     0.03257215    0.01310717    0.01686268
     atom   44 type  1   force =     0.02998125    0.05868313    0.00192773
     atom   45 type  1   force =    -0.02648493    0.00330519    0.00044808
     atom   46 type  1   force =    -0.01677270   -0.02551596    0.00539315
     atom   47 type  1   force =    -0.02006127    0.00966259   -0.02219099
     atom   48 type  1   force =     0.05693937   -0.05966036   -0.02328533
     atom   49 type  1   force =    -0.01166312   -0.02995379   -0.02150928
     atom   50 type  1   force =     0.03236539   -0.00031792    0.02374115
     atom   51 type  1   force =     0.07486737    0.01144601   -0.07307835
     atom   52 type  1   force =     0.01032718   -0.05525995   -0.06378671
     atom   53 type  1   force =     0.00107247    0.03923495   -0.00099335
     atom   54 type  1   force =    -0.03411276    0.02924976    0.00577430
     atom   55 type  1   force =    -0.01075146   -0.01235452   -0.03172506
     atom   56 type  1   force =    -0.01029600    0.01475352    0.01980476
     atom   57 type  1   force =     0.01482675    0.00421469    0.01986013
     atom   58 type  1   force =    -0.01539431    0.00714117    0.00587081
     atom   59 type  1   force =    -0.06064327   -0.00934701   -0.01309257
     atom   60 type  1   force =    -0.02958608    0.02012555    0.07153551
     atom   61 type  1   force =     0.00210333    0.01027050    0.00620599
     atom   62 type  1   force =     0.00577080    0.02006545   -0.00752752
     atom   63 type  1   force =    -0.00063708   -0.01511246    0.06246257
     atom   64 type  1   force =    -0.00678310    0.01079581    0.01791790

     Total force =     0.448522     Total SCF correction =     0.001341


     Computing stress (Cartesian axis) and pressure

          total   stress  (Ry/bohr**3)                   (kbar)     P=       -7.29
   0.00007066   0.00003414  -0.00004316           10.39        5.02       -6.35
   0.00003414  -0.00012722   0.00001635            5.02      -18.72        2.41
  -0.00004316   0.00001635  -0.00009205           -6.35        2.41      -13.54

 
     init_run     :      0.94s CPU      4.39s WALL (       1 calls)
     electrons    :      1.75s CPU      1.91s WALL (       1 calls)
     forces       :      0.03s CPU      0.03s WALL (       1 calls)
     stress       :      0.14s CPU      0.15s WALL (       1 calls)

     Called by init_run:
     wfcinit      :      0.43s CPU      3.72s WALL (       1 calls)
                                        3.72s GPU  (       1 calls)
     potinit      :      0.04s CPU      0.12s WALL (       1 calls)
     hinit0       :      0.45s CPU      0.48s WALL (       1 calls)

     Called by electrons:
     c_bands      :      1.16s CPU      1.22s WALL (      20 calls)
     sum_band     :      0.30s CPU      0.35s WALL (      20 calls)
     v_of_rho     :      0.13s CPU      0.22s WALL (      20 calls)
     mix_rho      :      0.14s CPU      0.17s WALL (      20 calls)

     Called by c_bands:
     init_us_2    :      0.05s CPU      0.05s WALL (      41 calls)
     init_us_2:gp :      0.05s CPU      0.05s WALL (      41 calls)
     regterg      :      1.02s CPU      1.08s WALL (      20 calls)

     Called by *egterg:
     rdiaghg      :      0.44s CPU      1.11s WALL (      99 calls)
                                        1.09s GPU  (      99 calls)
     h_psi        :      0.83s CPU      3.50s WALL (     101 calls)
                                        3.49s GPU  (     101 calls)
     g_psi        :      0.00s CPU      0.00s WALL (      80 calls)
                                        0.00s GPU  (      80 calls)

     Called by h_psi:
     h_psi:calbec :      0.41s CPU      3.00s WALL (     101 calls)
                                        3.00s GPU  (     101 calls)
     vloc_psi     :      0.37s CPU      0.43s WALL (     101 calls)
                                        0.43s GPU  (     101 calls)
     add_vuspsi   :      0.04s CPU      0.05s WALL (     101 calls)
                                        0.05s GPU  (     101 calls)

     General routines
     calbec       :      0.41s CPU      3.01s WALL (     106 calls)
     fft          :      0.54s CPU      0.66s WALL (     167 calls)
                                        0.12s GPU  (     106 calls)
     ffts         :      0.03s CPU      0.03s WALL (      20 calls)
     fftw         :      0.45s CPU      0.58s WALL (    2126 calls)
                                        0.51s GPU  (    2126 calls)
 
     Parallel routines
 
     PWSCF        :      2.90s CPU      6.56s WALL

 
   This run was terminated on:  12:12:22  11May2023            

=------------------------------------------------------------------------------=
   JOB DONE.
=------------------------------------------------------------------------------=
