An instance of this daemon is already running
An instance of this daemon is already running

     Program PWSCF v.7.1 starts on 11May2023 at 12:10: 5 

     This program is part of the open-source Quantum ESPRESSO suite
     for quantum simulation of materials; please cite
         "P. Giannozzi et al., J. Phys.:Condens. Matter 21 395502 (2009);
         "P. Giannozzi et al., J. Phys.:Condens. Matter 29 465901 (2017);
         "P. Giannozzi et al., J. Chem. Phys. 152 154105 (2020);
          URL http://www.quantum-espresso.org", 
     in publications or presentations arising from this work. More details at
     http://www.quantum-espresso.org/quote

     Parallel version (MPI & OpenMP), running on       4 processor cores
     Number of MPI processes:                 4
     Threads/MPI process:                     1

     MPI processes distributed on     1 nodes
     701363 MiB available memory on the printing compute node when the environment starts
 
     Reading input from pw-si-47.in
Warning: card &CELL ignored
Warning: card / ignored

     Current dimensions of program PWSCF are:
     Max number of different atomic species (ntypx) = 10
     Max number of k-points (npk) =  40000
     Max angular momentum in pseudopotentials (lmaxx) =  4

     IMPORTANT: XC functional enforced from input :
     Exchange-correlation= PBE
                           (   1   4   3   4   0   0   0)
     Any further DFT definition will be discarded
     Please, verify this is what you really want


     gamma-point specific algorithms are used
 
     K-points division:     npool     =       2
     R & G space division:  proc/nbgrp/npool/nimage =       2
     Subspace diagonalization in iterative solution of the eigenvalue problem:
     a serial algorithm will be used

     Message from routine divide_et_impera:
     suboptimal parallelization: some nodes have no k-points
 
     Parallelization info
     --------------------
     sticks:   dense  smooth     PW     G-vecs:    dense   smooth      PW
     Min        1954    1954    520                92054    92054   12584
     Max        1955    1955    521                92061    92061   12589
     Sum        3909    3909   1041               184115   184115   25173
 
     Using Slab Decomposition
 


     bravais-lattice index     =            0
     lattice parameter (alat)  =      20.2434  a.u.
     unit-cell volume          =    8295.6267 (a.u.)^3
     number of atoms/cell      =           64
     number of atomic types    =            1
     number of electrons       =       256.00
     number of Kohn-Sham states=          154
     kinetic-energy cutoff     =      30.0000  Ry
     charge density cutoff     =     120.0000  Ry
     scf convergence threshold =      1.0E-06
     mixing beta               =       0.5000
     number of iterations used =            8  plain     mixing
     Exchange-correlation= PBE
                           (   1   4   3   4   0   0   0)

     GPU acceleration is ACTIVE.
     GPU-aware MPI enabled

     Message from routine print_cuda_info:
     High GPU oversubscription detected. Are you sure this is what you want?

     celldm(1)=  20.243382  celldm(2)=   0.000000  celldm(3)=   0.000000
     celldm(4)=   0.000000  celldm(5)=   0.000000  celldm(6)=   0.000000

     crystal axes: (cart. coord. in units of alat)
               a(1) = (   1.000000   0.000000   0.000000 )  
               a(2) = (   0.000000   1.000000   0.000000 )  
               a(3) = (   0.000000   0.000000   1.000000 )  

     reciprocal axes: (cart. coord. in units 2 pi/alat)
               b(1) = (  1.000000  0.000000  0.000000 )  
               b(2) = (  0.000000  1.000000  0.000000 )  
               b(3) = (  0.000000  0.000000  1.000000 )  


     PseudoPot. # 1 for Si read from file:
     /home/ppiaggi/pseudos/Si_ONCV_PBE_sr.upf
     MD5 check sum: 8553c464762ac42b85b1eed164b4d029
     Pseudo is Norm-conserving, Zval =  4.0
     Generated using ONCVPSP code by D. R. Hamann
     Using radial grid of 1510 points,  4 beta functions with: 
                l(1) =   0
                l(2) =   0
                l(3) =   1
                l(4) =   1

     atomic species   valence    mass     pseudopotential
        Si             4.00    28.08500     Si( 1.00)

     No symmetry found



   Cartesian axes

     site n.     atom                  positions (alat units)
         1           Si  tau(   1) = (   0.3367420   0.3398400   0.6487390  )
         2           Si  tau(   2) = (   0.7458430   0.6643000   0.5846620  )
         3           Si  tau(   3) = (   0.1899110   0.3048750   0.7949210  )
         4           Si  tau(   4) = (   0.2645950   0.0308287   0.0039658  )
         5           Si  tau(   5) = (   0.9544620   0.8584850   0.1310710  )
         6           Si  tau(   6) = (   0.9570010   0.5013070   0.5776230  )
         7           Si  tau(   7) = (   0.1617700   0.2557250   0.1877390  )
         8           Si  tau(   8) = (   0.9285650   0.6456000   0.1504880  )
         9           Si  tau(   9) = (   0.3461590   0.5038840   0.4819630  )
        10           Si  tau(  10) = (   0.7533190   0.6476760   0.3133250  )
        11           Si  tau(  11) = (   0.0240150   0.1448700   0.0073391  )
        12           Si  tau(  12) = (   0.4248480   0.8940390   0.5315410  )
        13           Si  tau(  13) = (   0.8275730   0.0517205   0.7605220  )
        14           Si  tau(  14) = (   0.6100180   0.7320230   0.7679780  )
        15           Si  tau(  15) = (   0.0977355   0.8183550   0.8365050  )
        16           Si  tau(  16) = (   0.6766360   0.3363100   0.0546963  )
        17           Si  tau(  17) = (   0.5739050   0.1460670   0.5788960  )
        18           Si  tau(  18) = (   0.3901740   0.0952269   0.4850330  )
        19           Si  tau(  19) = (   0.4220760   0.9620000   0.7925760  )
        20           Si  tau(  20) = (   0.6497430   0.3058760   0.2908750  )
        21           Si  tau(  21) = (   0.2029070   0.4969230   0.9655420  )
        22           Si  tau(  22) = (   0.1843200   0.8347540   0.4648680  )
        23           Si  tau(  23) = (   0.2419410   0.5427620   0.7117640  )
        24           Si  tau(  24) = (   0.6597010   0.7987070   0.0065108  )
        25           Si  tau(  25) = (   0.6546980   0.4452880   0.6725710  )
        26           Si  tau(  26) = (   0.9102660   0.2915410   0.1435250  )
        27           Si  tau(  27) = (   0.4114820   0.8331220   0.9759540  )
        28           Si  tau(  28) = (   0.8371150   0.0676487   0.3732170  )
        29           Si  tau(  29) = (   0.6402160   0.9353310   0.6606830  )
        30           Si  tau(  30) = (   0.1793870   0.4906280   0.1870540  )
        31           Si  tau(  31) = (   0.9288160   0.3158450   0.8623950  )
        32           Si  tau(  32) = (   0.2195780   0.8989120   0.1538100  )
        33           Si  tau(  33) = (   0.5719140   0.0976283   0.9951630  )
        34           Si  tau(  34) = (   0.6812680   0.8272190   0.2332300  )
        35           Si  tau(  35) = (   0.4148620   0.3968980   0.2761840  )
        36           Si  tau(  36) = (   0.6854450   0.3374460   0.4973800  )
        37           Si  tau(  37) = (   0.6440560   0.5837440   0.9355460  )
        38           Si  tau(  38) = (   0.2930810   0.7814170   0.6699910  )
        39           Si  tau(  39) = (   0.6165840   0.8331000   0.4327000  )
        40           Si  tau(  40) = (   0.5860440   0.5696420   0.2149960  )
        41           Si  tau(  41) = (   0.0210274   0.6236180   0.9076010  )
        42           Si  tau(  42) = (   0.5487300   0.6140860   0.4916240  )
        43           Si  tau(  43) = (   0.3686190   0.6449350   0.1047920  )
        44           Si  tau(  44) = (   0.1550530   0.1074220   0.5209010  )
        45           Si  tau(  45) = (   0.0722808   0.7690950   0.2894170  )
        46           Si  tau(  46) = (   0.8565320   0.4800120   0.0435186  )
        47           Si  tau(  47) = (   0.4893610   0.4281170   0.0288512  )
        48           Si  tau(  48) = (   0.3915770   0.6586160   0.8129950  )
        49           Si  tau(  49) = (   0.0775591   0.0523906   0.2916730  )
        50           Si  tau(  50) = (   0.9881470   0.2378870   0.4796130  )
        51           Si  tau(  51) = (   0.3769400   0.1854940   0.9071710  )
        52           Si  tau(  52) = (   0.7412970   0.0091506   0.1333040  )
        53           Si  tau(  53) = (   0.9233960   0.9459990   0.9289570  )
        54           Si  tau(  54) = (   0.4846150   0.9707390   0.1961770  )
        55           Si  tau(  55) = (   0.1491780   0.0797600   0.8430790  )
        56           Si  tau(  56) = (   0.8626170   0.4139870   0.3851590  )
        57           Si  tau(  57) = (   0.8109100   0.8832790   0.4781640  )
        58           Si  tau(  58) = (   0.3470160   0.7763830   0.2848490  )
        59           Si  tau(  59) = (   0.0230262   0.1281250   0.6753000  )
        60           Si  tau(  60) = (   0.6222750   0.0737715   0.3270460  )
        61           Si  tau(  61) = (   0.6811440   0.2132680   0.8039560  )
        62           Si  tau(  62) = (   0.9402890   0.7155060   0.4683820  )
        63           Si  tau(  63) = (   0.4799030   0.4362330   0.8022150  )
        64           Si  tau(  64) = (   0.1219590   0.3934800   0.3996030  )

     number of k points=     1  Fermi-Dirac smearing, width (Ry)=  0.0100
                       cart. coord. in units 2pi/alat
        k(    1) = (   0.0000000   0.0000000   0.0000000), wk =   2.0000000

     Dense  grid:    92058 G-vectors     FFT dimensions: (  72,  72,  72)

     Estimated max dynamical RAM per process >     147.54 MB

     Estimated total dynamical RAM >     567.67 MB

     Initial potential from superposition of free atoms

     starting charge     255.9608, renormalised to     256.0000
     Starting wfcs are  256 randomized atomic wfcs

     total cpu time spent up to now is        4.5 secs

     Self-consistent Calculation

     iteration #  1     ecut=    30.00 Ry     beta= 0.50
     Davidson diagonalization with overlap
     ethr =  1.00E-02,  avg # of iterations =  3.0

     Threshold (ethr) on eigenvalues was too large:
     Diagonalizing with lowered threshold

     Davidson diagonalization with overlap
     ethr =  6.05E-04,  avg # of iterations =  4.0

     total cpu time spent up to now is        4.7 secs

     total energy              =    -500.25967564 Ry
     estimated scf accuracy    <       2.02766949 Ry

     iteration #  2     ecut=    30.00 Ry     beta= 0.50
     Davidson diagonalization with overlap
     ethr =  7.92E-04,  avg # of iterations =  6.0

     total cpu time spent up to now is        4.8 secs

     total energy              =    -499.11482621 Ry
     estimated scf accuracy    <      18.12565487 Ry

     iteration #  3     ecut=    30.00 Ry     beta= 0.50
     Davidson diagonalization with overlap
     ethr =  7.92E-04,  avg # of iterations =  4.0

     total cpu time spent up to now is        4.9 secs

     total energy              =    -500.57429568 Ry
     estimated scf accuracy    <       3.59353875 Ry

     iteration #  4     ecut=    30.00 Ry     beta= 0.50
     Davidson diagonalization with overlap
     ethr =  7.92E-04,  avg # of iterations =  2.0

     total cpu time spent up to now is        5.0 secs

     total energy              =    -500.87010610 Ry
     estimated scf accuracy    <       0.57168379 Ry

     iteration #  5     ecut=    30.00 Ry     beta= 0.50
     Davidson diagonalization with overlap
     ethr =  2.23E-04,  avg # of iterations =  2.0

     total cpu time spent up to now is        5.0 secs

     total energy              =    -500.87446869 Ry
     estimated scf accuracy    <       0.80863762 Ry

     iteration #  6     ecut=    30.00 Ry     beta= 0.50
     Davidson diagonalization with overlap
     ethr =  2.23E-04,  avg # of iterations =  2.0

     total cpu time spent up to now is        5.1 secs

     total energy              =    -500.94050344 Ry
     estimated scf accuracy    <       0.10844559 Ry

     iteration #  7     ecut=    30.00 Ry     beta= 0.50
     Davidson diagonalization with overlap
     ethr =  4.24E-05,  avg # of iterations =  2.0

     total cpu time spent up to now is        5.2 secs

     total energy              =    -500.95257986 Ry
     estimated scf accuracy    <       0.02845694 Ry

     iteration #  8     ecut=    30.00 Ry     beta= 0.50
     Davidson diagonalization with overlap
     ethr =  1.11E-05,  avg # of iterations = 18.0

     total cpu time spent up to now is        5.4 secs

     total energy              =    -500.95424127 Ry
     estimated scf accuracy    <       0.03476090 Ry

     iteration #  9     ecut=    30.00 Ry     beta= 0.50
     Davidson diagonalization with overlap
     ethr =  1.11E-05,  avg # of iterations =  2.0

     total cpu time spent up to now is        5.5 secs

     total energy              =    -500.95719701 Ry
     estimated scf accuracy    <       0.00485011 Ry

     iteration # 10     ecut=    30.00 Ry     beta= 0.50
     Davidson diagonalization with overlap
     ethr =  1.89E-06,  avg # of iterations = 11.0

     total cpu time spent up to now is        5.6 secs

     total energy              =    -500.95773121 Ry
     estimated scf accuracy    <       0.00151307 Ry

     iteration # 11     ecut=    30.00 Ry     beta= 0.50
     Davidson diagonalization with overlap
     ethr =  5.91E-07,  avg # of iterations =  3.0

     total cpu time spent up to now is        5.7 secs

     total energy              =    -500.95781302 Ry
     estimated scf accuracy    <       0.00135728 Ry

     iteration # 12     ecut=    30.00 Ry     beta= 0.50
     Davidson diagonalization with overlap
     ethr =  5.30E-07,  avg # of iterations =  2.0

     total cpu time spent up to now is        5.8 secs

     total energy              =    -500.95789937 Ry
     estimated scf accuracy    <       0.00044048 Ry

     iteration # 13     ecut=    30.00 Ry     beta= 0.50
     Davidson diagonalization with overlap
     ethr =  1.72E-07,  avg # of iterations =  3.0

     total cpu time spent up to now is        5.8 secs

     total energy              =    -500.95790024 Ry
     estimated scf accuracy    <       0.00133395 Ry

     iteration # 14     ecut=    30.00 Ry     beta= 0.50
     Davidson diagonalization with overlap
     ethr =  1.72E-07,  avg # of iterations =  2.0

     total cpu time spent up to now is        5.9 secs

     total energy              =    -500.95797787 Ry
     estimated scf accuracy    <       0.00004250 Ry

     iteration # 15     ecut=    30.00 Ry     beta= 0.50
     Davidson diagonalization with overlap
     ethr =  1.66E-08,  avg # of iterations =  4.0

     total cpu time spent up to now is        6.0 secs

     total energy              =    -500.95798495 Ry
     estimated scf accuracy    <       0.00002126 Ry

     iteration # 16     ecut=    30.00 Ry     beta= 0.50
     Davidson diagonalization with overlap
     ethr =  8.31E-09,  avg # of iterations =  3.0

     total cpu time spent up to now is        6.1 secs

     total energy              =    -500.95798589 Ry
     estimated scf accuracy    <       0.00005626 Ry

     iteration # 17     ecut=    30.00 Ry     beta= 0.50
     Davidson diagonalization with overlap
     ethr =  8.31E-09,  avg # of iterations =  2.0

     total cpu time spent up to now is        6.2 secs

     total energy              =    -500.95798923 Ry
     estimated scf accuracy    <       0.00000330 Ry

     iteration # 18     ecut=    30.00 Ry     beta= 0.50
     Davidson diagonalization with overlap
     ethr =  1.29E-09,  avg # of iterations =  4.0

     total cpu time spent up to now is        6.3 secs

     total energy              =    -500.95798926 Ry
     estimated scf accuracy    <       0.00000930 Ry

     iteration # 19     ecut=    30.00 Ry     beta= 0.50
     Davidson diagonalization with overlap
     ethr =  1.29E-09,  avg # of iterations =  2.0

     total cpu time spent up to now is        6.4 secs

     End of self-consistent calculation

          k = 0.0000 0.0000 0.0000 ( 11492 PWs)   bands (ev):

    -6.1094  -5.4346  -5.0183  -4.8148  -4.7766  -4.6265  -4.4009  -4.1685
    -4.0186  -3.8875  -3.7830  -3.6616  -3.4934  -3.3695  -3.1976  -3.1073
    -2.9792  -2.9207  -2.6752  -2.5366  -2.4908  -2.4018  -2.1366  -2.0145
    -1.8410  -1.7184  -1.4357  -1.3108  -1.1688  -1.0982  -0.9725  -0.9124
    -0.8159  -0.5372  -0.4738  -0.3316  -0.2897  -0.2349  -0.1795  -0.1424
    -0.0321   0.0589   0.1049   0.2984   0.3602   0.4723   0.5138   0.5865
     0.7276   0.8207   1.0355   1.0654   1.1879   1.2069   1.2763   1.5265
     1.5595   1.5872   1.7764   1.8307   1.9625   1.9853   2.0673   2.1648
     2.2601   2.2938   2.4733   2.6858   2.7024   2.7501   2.7815   2.8384
     2.9048   3.0435   3.1013   3.2197   3.3098   3.3780   3.4359   3.6289
     3.6684   3.7396   3.8588   4.0075   4.0453   4.1508   4.2599   4.3629
     4.3921   4.4484   4.5242   4.6421   4.6703   4.8060   4.8181   4.9160
     4.9503   5.0656   5.1702   5.2472   5.2722   5.3157   5.3966   5.4257
     5.5001   5.5283   5.5847   5.6563   5.7598   5.7968   5.8653   5.8983
     5.9605   6.0045   6.0751   6.0967   6.1481   6.2406   6.3244   6.3872
     6.4242   6.4610   6.5291   6.5801   6.6183   6.6615   6.7076   6.7634
     6.8448   6.9108   6.9369   7.0426   7.1014   7.1602   7.2466   7.2934
     7.4008   7.4929   7.5186   7.5287   7.6060   7.6385   7.6879   7.8578
     7.9078   7.9645   8.0245   8.1045   8.1761   8.2300   8.3169   8.3448
     8.4592   8.4889

     the Fermi energy is     6.8226 ev

!    total energy              =    -500.95798926 Ry
     estimated scf accuracy    <       0.00000083 Ry
     smearing contrib. (-TS)   =      -0.15172535 Ry
     internal energy E=F+TS    =    -500.80626391 Ry

     The total energy is F=E-TS. E is the sum of the following terms:
     one-electron contribution =     147.12836490 Ry
     hartree contribution      =      41.97560662 Ry
     xc contribution           =    -151.43804592 Ry
     ewald contribution        =    -538.47218951 Ry

     convergence has been achieved in  19 iterations

     Forces acting on atoms (cartesian axes, Ry/au):

     atom    1 type  1   force =     0.04932718    0.00317701   -0.04262961
     atom    2 type  1   force =    -0.01885128   -0.03527113    0.02438320
     atom    3 type  1   force =    -0.04772914   -0.00488517    0.06477764
     atom    4 type  1   force =     0.03661282   -0.00002977    0.02474548
     atom    5 type  1   force =    -0.01481721    0.03588197   -0.01661962
     atom    6 type  1   force =     0.00260441    0.03163194   -0.01062180
     atom    7 type  1   force =    -0.04017785   -0.01855458   -0.00451047
     atom    8 type  1   force =     0.01727567    0.01296951    0.02712765
     atom    9 type  1   force =    -0.01484407   -0.01883096   -0.00640259
     atom   10 type  1   force =     0.09307052   -0.04243155    0.04328973
     atom   11 type  1   force =    -0.02107404    0.03055244    0.01745006
     atom   12 type  1   force =     0.02448411   -0.03010143    0.00818037
     atom   13 type  1   force =    -0.01049635   -0.01338516   -0.01755923
     atom   14 type  1   force =    -0.00347226    0.02036453   -0.00029823
     atom   15 type  1   force =     0.00310090    0.02145660    0.00034943
     atom   16 type  1   force =     0.04883638   -0.03571525    0.01500235
     atom   17 type  1   force =     0.03397920    0.01638146    0.02044208
     atom   18 type  1   force =    -0.05003313    0.04309791   -0.01848692
     atom   19 type  1   force =     0.00617773    0.02623589   -0.00803281
     atom   20 type  1   force =    -0.04405069   -0.01277770   -0.05179678
     atom   21 type  1   force =    -0.01790161    0.01255268   -0.03101828
     atom   22 type  1   force =     0.02239876    0.02022307    0.01790519
     atom   23 type  1   force =    -0.03189634   -0.01494816   -0.02685434
     atom   24 type  1   force =    -0.02849167    0.01361105   -0.02867912
     atom   25 type  1   force =     0.02712733    0.04540488    0.01596000
     atom   26 type  1   force =     0.01922497   -0.01801641    0.01714634
     atom   27 type  1   force =     0.04279191   -0.03173783    0.01775022
     atom   28 type  1   force =     0.04952511    0.02718618   -0.03112772
     atom   29 type  1   force =    -0.00591241    0.02374687    0.01752568
     atom   30 type  1   force =     0.02073725    0.00460780    0.00961612
     atom   31 type  1   force =     0.00072516   -0.01118637    0.02027147
     atom   32 type  1   force =    -0.03632653   -0.03464215    0.05025958
     atom   33 type  1   force =    -0.00051972    0.01890121   -0.01641495
     atom   34 type  1   force =    -0.00783003    0.01330189   -0.05802471
     atom   35 type  1   force =     0.01333826    0.02374136   -0.00494450
     atom   36 type  1   force =    -0.00357603   -0.04527488    0.01271262
     atom   37 type  1   force =     0.01268257   -0.02490776    0.01060216
     atom   38 type  1   force =    -0.04407303    0.02550100   -0.00930855
     atom   39 type  1   force =    -0.09782119   -0.02237558    0.02843451
     atom   40 type  1   force =    -0.08068035   -0.04282797   -0.01460175
     atom   41 type  1   force =     0.01553392   -0.01893110    0.02935535
     atom   42 type  1   force =     0.00493231    0.00473183   -0.02143546
     atom   43 type  1   force =    -0.00101047   -0.02563533   -0.00135508
     atom   44 type  1   force =     0.09691842   -0.06118963   -0.08196893
     atom   45 type  1   force =    -0.00298310   -0.02742822   -0.00795567
     atom   46 type  1   force =    -0.03657695   -0.02675753   -0.07708675
     atom   47 type  1   force =    -0.04198461    0.02989126    0.00002252
     atom   48 type  1   force =     0.07350975   -0.00053087    0.04242225
     atom   49 type  1   force =    -0.00442747    0.00932938    0.01898778
     atom   50 type  1   force =    -0.05685126    0.00195979   -0.02031571
     atom   51 type  1   force =     0.02038585    0.01022012   -0.01412586
     atom   52 type  1   force =     0.03736519    0.00942524   -0.01206091
     atom   53 type  1   force =     0.00702872   -0.00348568   -0.00625307
     atom   54 type  1   force =    -0.01029180   -0.02107654   -0.02880969
     atom   55 type  1   force =    -0.00238059   -0.01918366   -0.04785415
     atom   56 type  1   force =     0.00427590    0.00358294   -0.01595481
     atom   57 type  1   force =     0.03858551    0.02658036    0.04743073
     atom   58 type  1   force =    -0.00245416    0.02484732    0.03247048
     atom   59 type  1   force =    -0.06796210    0.01863230    0.04554575
     atom   60 type  1   force =    -0.00304284    0.04162226    0.03470346
     atom   61 type  1   force =     0.00549352    0.01082395    0.01430523
     atom   62 type  1   force =     0.02576603   -0.03743038    0.00462025
     atom   63 type  1   force =    -0.01809094    0.00559166   -0.00367297
     atom   64 type  1   force =     0.01481587    0.03178310    0.00298538

     Total force =     0.426600     Total SCF correction =     0.001773


     Computing stress (Cartesian axis) and pressure

          total   stress  (Ry/bohr**3)                   (kbar)     P=       -3.01
  -0.00010172  -0.00000544   0.00002584          -14.96       -0.80        3.80
  -0.00000544   0.00002091  -0.00001688           -0.80        3.08       -2.48
   0.00002584  -0.00001688   0.00001946            3.80       -2.48        2.86

 
     init_run     :      0.94s CPU      4.42s WALL (       1 calls)
     electrons    :      1.77s CPU      1.89s WALL (       1 calls)
     forces       :      0.03s CPU      0.03s WALL (       1 calls)
     stress       :      0.14s CPU      0.14s WALL (       1 calls)

     Called by init_run:
     wfcinit      :      0.43s CPU      3.74s WALL (       1 calls)
                                        3.74s GPU  (       1 calls)
     potinit      :      0.04s CPU      0.14s WALL (       1 calls)
     hinit0       :      0.45s CPU      0.47s WALL (       1 calls)

     Called by electrons:
     c_bands      :      1.16s CPU      1.22s WALL (      20 calls)
     sum_band     :      0.31s CPU      0.35s WALL (      20 calls)
     v_of_rho     :      0.13s CPU      0.23s WALL (      20 calls)
     mix_rho      :      0.14s CPU      0.16s WALL (      20 calls)

     Called by c_bands:
     init_us_2    :      0.05s CPU      0.05s WALL (      41 calls)
     init_us_2:gp :      0.05s CPU      0.05s WALL (      41 calls)
     regterg      :      1.02s CPU      1.08s WALL (      20 calls)

     Called by *egterg:
     rdiaghg      :      0.44s CPU      1.12s WALL (     100 calls)
                                        1.10s GPU  (     100 calls)
     h_psi        :      0.84s CPU      3.51s WALL (     102 calls)
                                        3.51s GPU  (     102 calls)
     g_psi        :      0.00s CPU      0.00s WALL (      81 calls)
                                        0.00s GPU  (      81 calls)

     Called by h_psi:
     h_psi:calbec :      0.41s CPU      3.01s WALL (     102 calls)
                                        3.01s GPU  (     102 calls)
     vloc_psi     :      0.37s CPU      0.44s WALL (     102 calls)
                                        0.43s GPU  (     102 calls)
     add_vuspsi   :      0.04s CPU      0.06s WALL (     102 calls)
                                        0.06s GPU  (     102 calls)

     General routines
     calbec       :      0.42s CPU      3.01s WALL (     107 calls)
     fft          :      0.55s CPU      0.67s WALL (     167 calls)
                                        0.13s GPU  (     106 calls)
     ffts         :      0.03s CPU      0.03s WALL (      20 calls)
     fftw         :      0.45s CPU      0.59s WALL (    2132 calls)
                                        0.52s GPU  (    2132 calls)
 
     Parallel routines
 
     PWSCF        :      2.91s CPU      6.56s WALL

 
   This run was terminated on:  12:10:11  11May2023            

=------------------------------------------------------------------------------=
   JOB DONE.
=------------------------------------------------------------------------------=
