An instance of this daemon is already running

     Program PWSCF v.7.1 starts on 11May2023 at 12:16:13 

     This program is part of the open-source Quantum ESPRESSO suite
     for quantum simulation of materials; please cite
         "P. Giannozzi et al., J. Phys.:Condens. Matter 21 395502 (2009);
         "P. Giannozzi et al., J. Phys.:Condens. Matter 29 465901 (2017);
         "P. Giannozzi et al., J. Chem. Phys. 152 154105 (2020);
          URL http://www.quantum-espresso.org", 
     in publications or presentations arising from this work. More details at
     http://www.quantum-espresso.org/quote

     Parallel version (MPI & OpenMP), running on       4 processor cores
     Number of MPI processes:                 4
     Threads/MPI process:                     1

     MPI processes distributed on     1 nodes
     701362 MiB available memory on the printing compute node when the environment starts
 
     Reading input from pw-si-89.in
Warning: card &CELL ignored
Warning: card / ignored

     Current dimensions of program PWSCF are:
     Max number of different atomic species (ntypx) = 10
     Max number of k-points (npk) =  40000
     Max angular momentum in pseudopotentials (lmaxx) =  4

     IMPORTANT: XC functional enforced from input :
     Exchange-correlation= PBE
                           (   1   4   3   4   0   0   0)
     Any further DFT definition will be discarded
     Please, verify this is what you really want


     gamma-point specific algorithms are used
 
     K-points division:     npool     =       2
     R & G space division:  proc/nbgrp/npool/nimage =       2
     Subspace diagonalization in iterative solution of the eigenvalue problem:
     a serial algorithm will be used

     Message from routine divide_et_impera:
     suboptimal parallelization: some nodes have no k-points
 
     Parallelization info
     --------------------
     sticks:   dense  smooth     PW     G-vecs:    dense   smooth      PW
     Min        2023    2023    542                97221    97221   13262
     Max        2026    2026    543                97226    97226   13267
     Sum        4049    4049   1085               194447   194447   26529
 
     Using Slab Decomposition
 


     bravais-lattice index     =            0
     lattice parameter (alat)  =      20.6120  a.u.
     unit-cell volume          =    8757.0510 (a.u.)^3
     number of atoms/cell      =           64
     number of atomic types    =            1
     number of electrons       =       256.00
     number of Kohn-Sham states=          154
     kinetic-energy cutoff     =      30.0000  Ry
     charge density cutoff     =     120.0000  Ry
     scf convergence threshold =      1.0E-06
     mixing beta               =       0.5000
     number of iterations used =            8  plain     mixing
     Exchange-correlation= PBE
                           (   1   4   3   4   0   0   0)

     GPU acceleration is ACTIVE.
     GPU-aware MPI enabled

     Message from routine print_cuda_info:
     High GPU oversubscription detected. Are you sure this is what you want?

     celldm(1)=  20.611960  celldm(2)=   0.000000  celldm(3)=   0.000000
     celldm(4)=   0.000000  celldm(5)=   0.000000  celldm(6)=   0.000000

     crystal axes: (cart. coord. in units of alat)
               a(1) = (   1.000000   0.000000   0.000000 )  
               a(2) = (   0.000000   1.000000   0.000000 )  
               a(3) = (   0.000000   0.000000   1.000000 )  

     reciprocal axes: (cart. coord. in units 2 pi/alat)
               b(1) = (  1.000000  0.000000  0.000000 )  
               b(2) = (  0.000000  1.000000  0.000000 )  
               b(3) = (  0.000000  0.000000  1.000000 )  


     PseudoPot. # 1 for Si read from file:
     /home/ppiaggi/pseudos/Si_ONCV_PBE_sr.upf
     MD5 check sum: 8553c464762ac42b85b1eed164b4d029
     Pseudo is Norm-conserving, Zval =  4.0
     Generated using ONCVPSP code by D. R. Hamann
     Using radial grid of 1510 points,  4 beta functions with: 
                l(1) =   0
                l(2) =   0
                l(3) =   1
                l(4) =   1

     atomic species   valence    mass     pseudopotential
        Si             4.00    28.08500     Si( 1.00)

     No symmetry found



   Cartesian axes

     site n.     atom                  positions (alat units)
         1           Si  tau(   1) = (   0.2070270   0.2424020   0.6448150  )
         2           Si  tau(   2) = (   0.8546310   0.6215150   0.5395140  )
         3           Si  tau(   3) = (   0.9476770   0.2911030   0.7966100  )
         4           Si  tau(   4) = (   0.4320000   0.7244570   0.0093668  )
         5           Si  tau(   5) = (   0.9055920   0.9478490   0.1744750  )
         6           Si  tau(   6) = (   0.2332070   0.4720520   0.6386260  )
         7           Si  tau(   7) = (   0.1402500   0.9942230   0.2016510  )
         8           Si  tau(   8) = (   0.9195560   0.6216370   0.9852490  )
         9           Si  tau(   9) = (   0.4390440   0.4657950   0.7595950  )
        10           Si  tau(  10) = (   0.7968420   0.6454100   0.2540360  )
        11           Si  tau(  11) = (   0.8660950   0.0747752   0.9747640  )
        12           Si  tau(  12) = (   0.3189250   0.9249340   0.5878820  )
        13           Si  tau(  13) = (   0.8176410   0.0290639   0.5111090  )
        14           Si  tau(  14) = (   0.5683190   0.7513860   0.6715040  )
        15           Si  tau(  15) = (   0.1119550   0.1677440   0.8785410  )
        16           Si  tau(  16) = (   0.7773580   0.4314520   0.2319360  )
        17           Si  tau(  17) = (   0.6422670   0.0979992   0.6637210  )
        18           Si  tau(  18) = (   0.4279930   0.0815063   0.6872540  )
        19           Si  tau(  19) = (   0.5059000   0.0469369   0.9822460  )
        20           Si  tau(  20) = (   0.4490820   0.4013750   0.4351750  )
        21           Si  tau(  21) = (   0.2529330   0.3851340   0.8309470  )
        22           Si  tau(  22) = (   0.1740700   0.8206500   0.4186470  )
        23           Si  tau(  23) = (   0.2115780   0.8522520   0.7960740  )
        24           Si  tau(  24) = (   0.6852350   0.8997140   0.9159570  )
        25           Si  tau(  25) = (   0.7315890   0.4106930   0.8623850  )
        26           Si  tau(  26) = (   0.0858340   0.3856660   0.9717360  )
        27           Si  tau(  27) = (   0.1322230   0.5851710   0.8488460  )
        28           Si  tau(  28) = (   0.2935450   0.9938650   0.3839490  )
        29           Si  tau(  29) = (   0.4854610   0.8915350   0.8143920  )
        30           Si  tau(  30) = (   0.2975290   0.5046660   0.0306381  )
        31           Si  tau(  31) = (   0.9796750   0.4727210   0.6772590  )
        32           Si  tau(  32) = (   0.0022651   0.8553950   0.0113179  )
        33           Si  tau(  33) = (   0.6179440   0.2418770   0.9425190  )
        34           Si  tau(  34) = (   0.6510420   0.7339780   0.1033950  )
        35           Si  tau(  35) = (   0.5809920   0.5848010   0.3356540  )
        36           Si  tau(  36) = (   0.5804090   0.3122690   0.7034230  )
        37           Si  tau(  37) = (   0.7203810   0.6240790   0.7982760  )
        38           Si  tau(  38) = (   0.0021449   0.8994610   0.6508760  )
        39           Si  tau(  39) = (   0.4860040   0.8447770   0.4695850  )
        40           Si  tau(  40) = (   0.5530140   0.4775510   0.1381300  )
        41           Si  tau(  41) = (   0.9680030   0.6892610   0.7611240  )
        42           Si  tau(  42) = (   0.6267390   0.5151500   0.5218730  )
        43           Si  tau(  43) = (   0.3113990   0.6009340   0.2037400  )
        44           Si  tau(  44) = (   0.0554351   0.3384530   0.5149570  )
        45           Si  tau(  45) = (   0.1199060   0.7134670   0.1775690  )
        46           Si  tau(  46) = (   0.0333671   0.4689510   0.1685060  )
        47           Si  tau(  47) = (   0.2241510   0.4809880   0.4212260  )
        48           Si  tau(  48) = (   0.5576060   0.5387650   0.9205830  )
        49           Si  tau(  49) = (   0.1989740   0.8324480   0.9976130  )
        50           Si  tau(  50) = (   0.9752400   0.1175390   0.3298630  )
        51           Si  tau(  51) = (   0.3365050   0.3621180   0.2134430  )
        52           Si  tau(  52) = (   0.6882100   0.9399970   0.1421670  )
        53           Si  tau(  53) = (   0.8671210   0.8825170   0.8278270  )
        54           Si  tau(  54) = (   0.5777190   0.2665760   0.1622610  )
        55           Si  tau(  55) = (   0.2802100   0.2307660   0.0246290  )
        56           Si  tau(  56) = (   0.6643260   0.3462610   0.4259650  )
        57           Si  tau(  57) = (   0.5979380   0.0313372   0.4644150  )
        58           Si  tau(  58) = (   0.3747860   0.7003030   0.3675580  )
        59           Si  tau(  59) = (   0.0510724   0.1133950   0.5442510  )
        60           Si  tau(  60) = (   0.6903040   0.1427450   0.2894460  )
        61           Si  tau(  61) = (   0.8376610   0.1017530   0.7574460  )
        62           Si  tau(  62) = (   0.9588510   0.7667760   0.3465960  )
        63           Si  tau(  63) = (   0.4269720   0.2058430   0.8696970  )
        64           Si  tau(  64) = (   0.1244990   0.2627030   0.2330620  )

     number of k points=     1  Fermi-Dirac smearing, width (Ry)=  0.0100
                       cart. coord. in units 2pi/alat
        k(    1) = (   0.0000000   0.0000000   0.0000000), wk =   2.0000000

     Dense  grid:    97224 G-vectors     FFT dimensions: (  72,  72,  72)

     Estimated max dynamical RAM per process >     154.89 MB

     Estimated total dynamical RAM >     595.82 MB

     Initial potential from superposition of free atoms

     starting charge     255.9608, renormalised to     256.0000
     Starting wfcs are  256 randomized atomic wfcs

     total cpu time spent up to now is        4.5 secs

     Self-consistent Calculation

     iteration #  1     ecut=    30.00 Ry     beta= 0.50
     Davidson diagonalization with overlap
     ethr =  1.00E-02,  avg # of iterations =  3.0

     Threshold (ethr) on eigenvalues was too large:
     Diagonalizing with lowered threshold

     Davidson diagonalization with overlap
     ethr =  6.10E-04,  avg # of iterations =  4.0

     total cpu time spent up to now is        4.7 secs

     total energy              =    -500.34382500 Ry
     estimated scf accuracy    <       2.04465415 Ry

     iteration #  2     ecut=    30.00 Ry     beta= 0.50
     Davidson diagonalization with overlap
     ethr =  7.99E-04,  avg # of iterations =  5.0

     total cpu time spent up to now is        4.8 secs

     total energy              =    -499.34590863 Ry
     estimated scf accuracy    <      14.04761796 Ry

     iteration #  3     ecut=    30.00 Ry     beta= 0.50
     Davidson diagonalization with overlap
     ethr =  7.99E-04,  avg # of iterations =  5.0

     total cpu time spent up to now is        4.9 secs

     total energy              =    -500.62158090 Ry
     estimated scf accuracy    <       3.89796699 Ry

     iteration #  4     ecut=    30.00 Ry     beta= 0.50
     Davidson diagonalization with overlap
     ethr =  7.99E-04,  avg # of iterations =  2.0

     total cpu time spent up to now is        5.0 secs

     total energy              =    -500.89906610 Ry
     estimated scf accuracy    <       0.63642234 Ry

     iteration #  5     ecut=    30.00 Ry     beta= 0.50
     Davidson diagonalization with overlap
     ethr =  2.49E-04,  avg # of iterations =  3.0

     total cpu time spent up to now is        5.0 secs

     total energy              =    -500.93730024 Ry
     estimated scf accuracy    <       0.53014006 Ry

     iteration #  6     ecut=    30.00 Ry     beta= 0.50
     Davidson diagonalization with overlap
     ethr =  2.07E-04,  avg # of iterations =  2.0

     total cpu time spent up to now is        5.1 secs

     total energy              =    -500.98412322 Ry
     estimated scf accuracy    <       0.17003553 Ry

     iteration #  7     ecut=    30.00 Ry     beta= 0.50
     Davidson diagonalization with overlap
     ethr =  6.64E-05,  avg # of iterations =  2.0

     total cpu time spent up to now is        5.2 secs

     total energy              =    -500.99791213 Ry
     estimated scf accuracy    <       0.02936318 Ry

     iteration #  8     ecut=    30.00 Ry     beta= 0.50
     Davidson diagonalization with overlap
     ethr =  1.15E-05,  avg # of iterations = 17.0

     total cpu time spent up to now is        5.4 secs

     total energy              =    -501.00131208 Ry
     estimated scf accuracy    <       0.04009609 Ry

     iteration #  9     ecut=    30.00 Ry     beta= 0.50
     Davidson diagonalization with overlap
     ethr =  1.15E-05,  avg # of iterations =  2.0

     total cpu time spent up to now is        5.5 secs

     total energy              =    -501.00422992 Ry
     estimated scf accuracy    <       0.00247758 Ry

     iteration # 10     ecut=    30.00 Ry     beta= 0.50
     Davidson diagonalization with overlap
     ethr =  9.68E-07,  avg # of iterations =  8.0

     total cpu time spent up to now is        5.6 secs

     total energy              =    -501.00438876 Ry
     estimated scf accuracy    <       0.00679853 Ry

     iteration # 11     ecut=    30.00 Ry     beta= 0.50
     Davidson diagonalization with overlap
     ethr =  9.68E-07,  avg # of iterations =  3.0

     total cpu time spent up to now is        5.7 secs

     total energy              =    -501.00483993 Ry
     estimated scf accuracy    <       0.00065472 Ry

     iteration # 12     ecut=    30.00 Ry     beta= 0.50
     Davidson diagonalization with overlap
     ethr =  2.56E-07,  avg # of iterations =  3.0

     total cpu time spent up to now is        5.8 secs

     total energy              =    -501.00488712 Ry
     estimated scf accuracy    <       0.00048384 Ry

     iteration # 13     ecut=    30.00 Ry     beta= 0.50
     Davidson diagonalization with overlap
     ethr =  1.89E-07,  avg # of iterations =  2.0

     total cpu time spent up to now is        5.9 secs

     total energy              =    -501.00492974 Ry
     estimated scf accuracy    <       0.00027384 Ry

     iteration # 14     ecut=    30.00 Ry     beta= 0.50
     Davidson diagonalization with overlap
     ethr =  1.07E-07,  avg # of iterations =  2.0

     total cpu time spent up to now is        5.9 secs

     total energy              =    -501.00494545 Ry
     estimated scf accuracy    <       0.00008244 Ry

     iteration # 15     ecut=    30.00 Ry     beta= 0.50
     Davidson diagonalization with overlap
     ethr =  3.22E-08,  avg # of iterations =  2.0

     total cpu time spent up to now is        6.0 secs

     total energy              =    -501.00495019 Ry
     estimated scf accuracy    <       0.00002484 Ry

     iteration # 16     ecut=    30.00 Ry     beta= 0.50
     Davidson diagonalization with overlap
     ethr =  9.70E-09,  avg # of iterations =  3.0

     total cpu time spent up to now is        6.1 secs

     total energy              =    -501.00495048 Ry
     estimated scf accuracy    <       0.00005711 Ry

     iteration # 17     ecut=    30.00 Ry     beta= 0.50
     Davidson diagonalization with overlap
     ethr =  9.70E-09,  avg # of iterations =  2.0

     total cpu time spent up to now is        6.2 secs

     total energy              =    -501.00495382 Ry
     estimated scf accuracy    <       0.00000996 Ry

     iteration # 18     ecut=    30.00 Ry     beta= 0.50
     Davidson diagonalization with overlap
     ethr =  3.89E-09,  avg # of iterations =  2.0

     total cpu time spent up to now is        6.3 secs

     total energy              =    -501.00495497 Ry
     estimated scf accuracy    <       0.00000341 Ry

     iteration # 19     ecut=    30.00 Ry     beta= 0.50
     Davidson diagonalization with overlap
     ethr =  1.33E-09,  avg # of iterations =  2.0

     total cpu time spent up to now is        6.4 secs

     total energy              =    -501.00495511 Ry
     estimated scf accuracy    <       0.00000211 Ry

     iteration # 20     ecut=    30.00 Ry     beta= 0.50
     Davidson diagonalization with overlap
     ethr =  8.26E-10,  avg # of iterations =  2.0

     total cpu time spent up to now is        6.4 secs

     End of self-consistent calculation

          k = 0.0000 0.0000 0.0000 ( 12104 PWs)   bands (ev):

    -6.5552  -5.8535  -5.6934  -5.6406  -5.2229  -5.1874  -4.8214  -4.6401
    -4.5413  -4.4645  -4.3108  -4.2055  -4.1478  -3.8535  -3.7818  -3.7429
    -3.5853  -3.2970  -3.1163  -2.9806  -2.8905  -2.7482  -2.6481  -2.5119
    -2.4601  -2.1729  -1.9415  -1.8104  -1.7443  -1.5280  -1.4680  -1.4331
    -1.3436  -1.1934  -1.1149  -1.0349  -0.8877  -0.8835  -0.7223  -0.6212
    -0.5898  -0.4129  -0.3837  -0.2467  -0.1347  -0.0662   0.1336   0.1647
     0.2513   0.4144   0.4754   0.4879   0.5473   0.6979   0.8101   0.8345
     0.8573   0.9814   1.1234   1.3009   1.3296   1.4122   1.7132   1.8075
     1.8823   2.0218   2.0969   2.1489   2.2347   2.3233   2.3958   2.5160
     2.5551   2.6748   2.7299   2.8016   2.9015   2.9819   3.0425   3.1392
     3.2098   3.2463   3.3275   3.3418   3.3915   3.5474   3.6857   3.7436
     3.8123   3.8340   3.9360   3.9829   4.0384   4.0960   4.1923   4.2285
     4.2883   4.4150   4.4882   4.5043   4.5767   4.6340   4.6719   4.7801
     4.7992   4.8834   4.9638   5.0772   5.1258   5.1622   5.2127   5.3097
     5.3402   5.3966   5.4402   5.4654   5.5911   5.6542   5.7184   5.8039
     5.8407   5.8594   5.9508   6.0120   6.0362   6.1463   6.1754   6.2575
     6.3443   6.4756   6.4981   6.5680   6.5743   6.6511   6.6775   6.7997
     6.8453   6.8801   6.9860   7.0826   7.0936   7.1360   7.1887   7.2443
     7.3300   7.4065   7.4361   7.5743   7.6028   7.6840   7.7301   7.7585
     7.8670   7.8851

     the Fermi energy is     6.3082 ev

!    total energy              =    -501.00495508 Ry
     estimated scf accuracy    <       0.00000031 Ry
     smearing contrib. (-TS)   =      -0.13518201 Ry
     internal energy E=F+TS    =    -500.86977307 Ry

     The total energy is F=E-TS. E is the sum of the following terms:
     one-electron contribution =     107.44680700 Ry
     hartree contribution      =      56.23885407 Ry
     xc contribution           =    -150.78868378 Ry
     ewald contribution        =    -513.76675036 Ry

     convergence has been achieved in  20 iterations

     Forces acting on atoms (cartesian axes, Ry/au):

     atom    1 type  1   force =     0.03849500   -0.01219652    0.03259204
     atom    2 type  1   force =    -0.00307488   -0.00911406    0.03824234
     atom    3 type  1   force =    -0.03695507    0.03231790    0.01270266
     atom    4 type  1   force =     0.01791980   -0.01197868   -0.00033117
     atom    5 type  1   force =     0.00907284   -0.00162916    0.04899713
     atom    6 type  1   force =    -0.00720531    0.01777950   -0.02178889
     atom    7 type  1   force =     0.01287814    0.00147772    0.01546908
     atom    8 type  1   force =     0.01705929   -0.00504753    0.01078139
     atom    9 type  1   force =    -0.00555536    0.01234779   -0.03724043
     atom   10 type  1   force =    -0.01823337   -0.00214290   -0.01419072
     atom   11 type  1   force =     0.00715109   -0.01712338    0.00023554
     atom   12 type  1   force =    -0.02448657   -0.03132267    0.03505087
     atom   13 type  1   force =     0.02937700    0.00236904    0.00739062
     atom   14 type  1   force =     0.00667980   -0.02171762   -0.01608965
     atom   15 type  1   force =    -0.00903264   -0.00500686   -0.00447710
     atom   16 type  1   force =    -0.00788013   -0.00657404    0.01764300
     atom   17 type  1   force =     0.00477082    0.03065866    0.00373180
     atom   18 type  1   force =    -0.02116737    0.01960126    0.02209996
     atom   19 type  1   force =     0.03846741   -0.05470630    0.03821331
     atom   20 type  1   force =    -0.03553531    0.00823575   -0.01509635
     atom   21 type  1   force =     0.00817700   -0.03251043    0.03637939
     atom   22 type  1   force =    -0.00690499   -0.03231138   -0.00277213
     atom   23 type  1   force =    -0.01331412    0.00714326   -0.09544544
     atom   24 type  1   force =    -0.05050671   -0.00856583    0.03321338
     atom   25 type  1   force =     0.03022791   -0.02289840   -0.02882490
     atom   26 type  1   force =    -0.01912581    0.01851990    0.00982955
     atom   27 type  1   force =     0.00250664   -0.00982064    0.00388124
     atom   28 type  1   force =    -0.01057219    0.02887401   -0.03491515
     atom   29 type  1   force =    -0.00753497   -0.00756659    0.02202798
     atom   30 type  1   force =     0.01060860   -0.05125565   -0.07707399
     atom   31 type  1   force =     0.01088289    0.00609484   -0.02324160
     atom   32 type  1   force =    -0.08766592   -0.00861066   -0.02305243
     atom   33 type  1   force =     0.04449358   -0.00594045    0.02418207
     atom   34 type  1   force =    -0.02203200    0.00088708   -0.01407938
     atom   35 type  1   force =    -0.01562946    0.01686285   -0.06615497
     atom   36 type  1   force =     0.02544889   -0.00026079   -0.00004352
     atom   37 type  1   force =     0.02893695    0.02244719   -0.02615123
     atom   38 type  1   force =     0.01321567    0.01159796   -0.01045247
     atom   39 type  1   force =     0.01998705    0.00782336    0.04288773
     atom   40 type  1   force =    -0.00417526    0.02475493    0.00447371
     atom   41 type  1   force =    -0.03611806    0.00828859   -0.03687037
     atom   42 type  1   force =     0.01802882    0.07018575    0.12175514
     atom   43 type  1   force =    -0.02068640    0.02257995    0.02229991
     atom   44 type  1   force =     0.00435422    0.01719914   -0.03076713
     atom   45 type  1   force =    -0.01133169   -0.03004825    0.01574094
     atom   46 type  1   force =    -0.02244185   -0.00750756   -0.02697395
     atom   47 type  1   force =     0.01510969   -0.01356659   -0.00559537
     atom   48 type  1   force =    -0.03529477    0.02505461    0.05904753
     atom   49 type  1   force =     0.08417642   -0.00640459    0.06954287
     atom   50 type  1   force =    -0.00064148   -0.00279723   -0.00080197
     atom   51 type  1   force =     0.03374655   -0.00227643    0.01011573
     atom   52 type  1   force =    -0.00667144    0.04524672   -0.00175436
     atom   53 type  1   force =     0.05304611    0.00910029   -0.00382156
     atom   54 type  1   force =    -0.03738690    0.01175822   -0.03003165
     atom   55 type  1   force =    -0.02849514    0.00951712    0.03223237
     atom   56 type  1   force =     0.03801774   -0.09127431   -0.08520561
     atom   57 type  1   force =     0.01468551    0.00427074   -0.04101164
     atom   58 type  1   force =    -0.01049450   -0.00599306    0.04295407
     atom   59 type  1   force =    -0.01343051   -0.00825913   -0.00737190
     atom   60 type  1   force =     0.02318740   -0.03080463    0.05024289
     atom   61 type  1   force =     0.00325429   -0.00328168   -0.02622678
     atom   62 type  1   force =     0.00620624    0.02302806   -0.01381525
     atom   63 type  1   force =    -0.03644091    0.04073908   -0.06716009
     atom   64 type  1   force =    -0.00414833    0.00375275    0.00487290

     Total force =     0.417095     Total SCF correction =     0.001094


     Computing stress (Cartesian axis) and pressure

          total   stress  (Ry/bohr**3)                   (kbar)     P=      -11.81
  -0.00015068  -0.00002152   0.00000476          -22.17       -3.16        0.70
  -0.00002152  -0.00012345   0.00005650           -3.16      -18.16        8.31
   0.00000476   0.00005650   0.00003333            0.70        8.31        4.90

 
     init_run     :      1.32s CPU      4.39s WALL (       1 calls)
     electrons    :      1.85s CPU      1.98s WALL (       1 calls)
     forces       :      0.03s CPU      0.03s WALL (       1 calls)
     stress       :      0.15s CPU      0.15s WALL (       1 calls)

     Called by init_run:
     wfcinit      :      0.81s CPU      3.71s WALL (       1 calls)
                                        3.71s GPU  (       1 calls)
     potinit      :      0.04s CPU      0.13s WALL (       1 calls)
     hinit0       :      0.45s CPU      0.48s WALL (       1 calls)

     Called by electrons:
     c_bands      :      1.19s CPU      1.26s WALL (      21 calls)
     sum_band     :      0.33s CPU      0.37s WALL (      21 calls)
     v_of_rho     :      0.14s CPU      0.24s WALL (      21 calls)
     mix_rho      :      0.16s CPU      0.17s WALL (      21 calls)

     Called by c_bands:
     init_us_2    :      0.05s CPU      0.06s WALL (      43 calls)
     init_us_2:gp :      0.05s CPU      0.05s WALL (      43 calls)
     regterg      :      1.04s CPU      1.10s WALL (      21 calls)

     Called by *egterg:
     rdiaghg      :      0.44s CPU      1.04s WALL (      96 calls)
                                        1.02s GPU  (      96 calls)
     h_psi        :      1.24s CPU      3.58s WALL (      98 calls)
                                        3.58s GPU  (      98 calls)
     g_psi        :      0.00s CPU      0.00s WALL (      76 calls)
                                        0.00s GPU  (      76 calls)

     Called by h_psi:
     h_psi:calbec :      0.80s CPU      3.07s WALL (      98 calls)
                                        3.07s GPU  (      98 calls)
     vloc_psi     :      0.38s CPU      0.46s WALL (      98 calls)
                                        0.45s GPU  (      98 calls)
     add_vuspsi   :      0.03s CPU      0.05s WALL (      98 calls)
                                        0.05s GPU  (      98 calls)

     General routines
     calbec       :      0.80s CPU      3.07s WALL (     103 calls)
     fft          :      0.56s CPU      0.68s WALL (     175 calls)
                                        0.13s GPU  (     111 calls)
     ffts         :      0.03s CPU      0.04s WALL (      21 calls)
     fftw         :      0.47s CPU      0.62s WALL (    2219 calls)
                                        0.54s GPU  (    2219 calls)
 
     Parallel routines
 
     PWSCF        :      3.39s CPU      6.64s WALL

 
   This run was terminated on:  12:16:19  11May2023            

=------------------------------------------------------------------------------=
   JOB DONE.
=------------------------------------------------------------------------------=
