An instance of this daemon is already running

     Program PWSCF v.7.1 starts on 11May2023 at 12:16:30 

     This program is part of the open-source Quantum ESPRESSO suite
     for quantum simulation of materials; please cite
         "P. Giannozzi et al., J. Phys.:Condens. Matter 21 395502 (2009);
         "P. Giannozzi et al., J. Phys.:Condens. Matter 29 465901 (2017);
         "P. Giannozzi et al., J. Chem. Phys. 152 154105 (2020);
          URL http://www.quantum-espresso.org", 
     in publications or presentations arising from this work. More details at
     http://www.quantum-espresso.org/quote

     Parallel version (MPI & OpenMP), running on       4 processor cores
     Number of MPI processes:                 4
     Threads/MPI process:                     1

     MPI processes distributed on     1 nodes
     701352 MiB available memory on the printing compute node when the environment starts
 
     Reading input from pw-si-91.in
Warning: card &CELL ignored
Warning: card / ignored

     Current dimensions of program PWSCF are:
     Max number of different atomic species (ntypx) = 10
     Max number of k-points (npk) =  40000
     Max angular momentum in pseudopotentials (lmaxx) =  4

     IMPORTANT: XC functional enforced from input :
     Exchange-correlation= PBE
                           (   1   4   3   4   0   0   0)
     Any further DFT definition will be discarded
     Please, verify this is what you really want


     gamma-point specific algorithms are used
 
     K-points division:     npool     =       2
     R & G space division:  proc/nbgrp/npool/nimage =       2
     Subspace diagonalization in iterative solution of the eigenvalue problem:
     a serial algorithm will be used

     Message from routine divide_et_impera:
     suboptimal parallelization: some nodes have no k-points
 
     Parallelization info
     --------------------
     sticks:   dense  smooth     PW     G-vecs:    dense   smooth      PW
     Min        2019    2019    541                96801    96801   13096
     Max        2022    2022    544                96806    96806   13097
     Sum        4041    4041   1085               193607   193607   26193
 
     Using Slab Decomposition
 


     bravais-lattice index     =            0
     lattice parameter (alat)  =      20.5914  a.u.
     unit-cell volume          =    8730.9050 (a.u.)^3
     number of atoms/cell      =           64
     number of atomic types    =            1
     number of electrons       =       256.00
     number of Kohn-Sham states=          154
     kinetic-energy cutoff     =      30.0000  Ry
     charge density cutoff     =     120.0000  Ry
     scf convergence threshold =      1.0E-06
     mixing beta               =       0.5000
     number of iterations used =            8  plain     mixing
     Exchange-correlation= PBE
                           (   1   4   3   4   0   0   0)

     GPU acceleration is ACTIVE.
     GPU-aware MPI enabled

     Message from routine print_cuda_info:
     High GPU oversubscription detected. Are you sure this is what you want?

     celldm(1)=  20.591426  celldm(2)=   0.000000  celldm(3)=   0.000000
     celldm(4)=   0.000000  celldm(5)=   0.000000  celldm(6)=   0.000000

     crystal axes: (cart. coord. in units of alat)
               a(1) = (   1.000000   0.000000   0.000000 )  
               a(2) = (   0.000000   1.000000   0.000000 )  
               a(3) = (   0.000000   0.000000   1.000000 )  

     reciprocal axes: (cart. coord. in units 2 pi/alat)
               b(1) = (  1.000000  0.000000  0.000000 )  
               b(2) = (  0.000000  1.000000  0.000000 )  
               b(3) = (  0.000000  0.000000  1.000000 )  


     PseudoPot. # 1 for Si read from file:
     /home/ppiaggi/pseudos/Si_ONCV_PBE_sr.upf
     MD5 check sum: 8553c464762ac42b85b1eed164b4d029
     Pseudo is Norm-conserving, Zval =  4.0
     Generated using ONCVPSP code by D. R. Hamann
     Using radial grid of 1510 points,  4 beta functions with: 
                l(1) =   0
                l(2) =   0
                l(3) =   1
                l(4) =   1

     atomic species   valence    mass     pseudopotential
        Si             4.00    28.08500     Si( 1.00)

     No symmetry found



   Cartesian axes

     site n.     atom                  positions (alat units)
         1           Si  tau(   1) = (   0.2101360   0.2385300   0.6518660  )
         2           Si  tau(   2) = (   0.8466630   0.6006660   0.5273010  )
         3           Si  tau(   3) = (   0.9475440   0.2987300   0.7968520  )
         4           Si  tau(   4) = (   0.4246360   0.7310530   0.0209689  )
         5           Si  tau(   5) = (   0.9078860   0.9362280   0.1778090  )
         6           Si  tau(   6) = (   0.2338660   0.4701880   0.6218750  )
         7           Si  tau(   7) = (   0.1568210   0.9833810   0.1818650  )
         8           Si  tau(   8) = (   0.9176740   0.6040570   0.9816540  )
         9           Si  tau(   9) = (   0.4494700   0.4701910   0.7669570  )
        10           Si  tau(  10) = (   0.7955900   0.6497490   0.2504430  )
        11           Si  tau(  11) = (   0.8632770   0.0692976   0.0102348  )
        12           Si  tau(  12) = (   0.2960420   0.9002740   0.5999910  )
        13           Si  tau(  13) = (   0.8206130   0.0308318   0.5141100  )
        14           Si  tau(  14) = (   0.5709560   0.7464730   0.6640840  )
        15           Si  tau(  15) = (   0.1195070   0.2001670   0.8807030  )
        16           Si  tau(  16) = (   0.8151480   0.4333680   0.2480860  )
        17           Si  tau(  17) = (   0.6551150   0.0921277   0.6528750  )
        18           Si  tau(  18) = (   0.4266020   0.0881551   0.6871800  )
        19           Si  tau(  19) = (   0.4954090   0.0570588   0.9891550  )
        20           Si  tau(  20) = (   0.4489020   0.4061870   0.4617650  )
        21           Si  tau(  21) = (   0.2570860   0.3730880   0.8202880  )
        22           Si  tau(  22) = (   0.1832950   0.8210100   0.4244080  )
        23           Si  tau(  23) = (   0.2048390   0.8729860   0.7821500  )
        24           Si  tau(  24) = (   0.6748160   0.9120710   0.9263070  )
        25           Si  tau(  25) = (   0.7445240   0.4209830   0.8606760  )
        26           Si  tau(  26) = (   0.0650215   0.3891310   0.9719430  )
        27           Si  tau(  27) = (   0.1309720   0.5618600   0.8294060  )
        28           Si  tau(  28) = (   0.3270190   0.9921070   0.3668040  )
        29           Si  tau(  29) = (   0.4823520   0.8647850   0.8250900  )
        30           Si  tau(  30) = (   0.2854560   0.4899340   0.0289040  )
        31           Si  tau(  31) = (   0.9630590   0.4625950   0.6542570  )
        32           Si  tau(  32) = (   0.9993680   0.8524510   0.9805490  )
        33           Si  tau(  33) = (   0.6434920   0.2499900   0.9307400  )
        34           Si  tau(  34) = (   0.6598000   0.7393730   0.1005390  )
        35           Si  tau(  35) = (   0.5872780   0.6007320   0.3186000  )
        36           Si  tau(  36) = (   0.5682130   0.3116260   0.7009350  )
        37           Si  tau(  37) = (   0.7281770   0.6376390   0.8016260  )
        38           Si  tau(  38) = (   0.0175947   0.9060700   0.6514000  )
        39           Si  tau(  39) = (   0.4969410   0.8403620   0.4827540  )
        40           Si  tau(  40) = (   0.5451790   0.4810380   0.1437770  )
        41           Si  tau(  41) = (   0.9481010   0.6861440   0.7561080  )
        42           Si  tau(  42) = (   0.6154170   0.5183490   0.5216020  )
        43           Si  tau(  43) = (   0.3172890   0.6078750   0.2043530  )
        44           Si  tau(  44) = (   0.0505738   0.3441080   0.5184670  )
        45           Si  tau(  45) = (   0.1317220   0.7264200   0.1886370  )
        46           Si  tau(  46) = (   0.0475750   0.4705940   0.1774080  )
        47           Si  tau(  47) = (   0.2242830   0.4911100   0.4072610  )
        48           Si  tau(  48) = (   0.5600170   0.5325880   0.9318640  )
        49           Si  tau(  49) = (   0.2167700   0.8320200   0.0159048  )
        50           Si  tau(  50) = (   0.9771120   0.1193840   0.3285000  )
        51           Si  tau(  51) = (   0.3179870   0.3658550   0.2361240  )
        52           Si  tau(  52) = (   0.6800170   0.9458180   0.1473910  )
        53           Si  tau(  53) = (   0.8780800   0.8699450   0.8156910  )
        54           Si  tau(  54) = (   0.5563250   0.2778290   0.1656230  )
        55           Si  tau(  55) = (   0.2818910   0.2399540   0.0132466  )
        56           Si  tau(  56) = (   0.6499400   0.3359330   0.4242710  )
        57           Si  tau(  57) = (   0.5768440   0.0485354   0.4603150  )
        58           Si  tau(  58) = (   0.3768730   0.7159870   0.3702780  )
        59           Si  tau(  59) = (   0.0471407   0.0965378   0.5448580  )
        60           Si  tau(  60) = (   0.6797650   0.1205560   0.2880520  )
        61           Si  tau(  61) = (   0.8496790   0.1054970   0.7562030  )
        62           Si  tau(  62) = (   0.9517700   0.7759290   0.3390560  )
        63           Si  tau(  63) = (   0.4238760   0.2041630   0.8746760  )
        64           Si  tau(  64) = (   0.1068430   0.2412430   0.2450800  )

     number of k points=     1  Fermi-Dirac smearing, width (Ry)=  0.0100
                       cart. coord. in units 2pi/alat
        k(    1) = (   0.0000000   0.0000000   0.0000000), wk =   2.0000000

     Dense  grid:    96804 G-vectors     FFT dimensions: (  72,  72,  72)

     Estimated max dynamical RAM per process >     154.43 MB

     Estimated total dynamical RAM >     594.09 MB

     Initial potential from superposition of free atoms

     starting charge     255.9608, renormalised to     256.0000
     Starting wfcs are  256 randomized atomic wfcs

     total cpu time spent up to now is        4.5 secs

     Self-consistent Calculation

     iteration #  1     ecut=    30.00 Ry     beta= 0.50
     Davidson diagonalization with overlap
     ethr =  1.00E-02,  avg # of iterations =  3.0

     Threshold (ethr) on eigenvalues was too large:
     Diagonalizing with lowered threshold

     Davidson diagonalization with overlap
     ethr =  6.17E-04,  avg # of iterations =  4.0

     total cpu time spent up to now is        4.7 secs

     total energy              =    -500.24332328 Ry
     estimated scf accuracy    <       2.02614549 Ry

     iteration #  2     ecut=    30.00 Ry     beta= 0.50
     Davidson diagonalization with overlap
     ethr =  7.91E-04,  avg # of iterations =  5.0

     total cpu time spent up to now is        4.8 secs

     total energy              =    -499.17090072 Ry
     estimated scf accuracy    <      15.47985545 Ry

     iteration #  3     ecut=    30.00 Ry     beta= 0.50
     Davidson diagonalization with overlap
     ethr =  7.91E-04,  avg # of iterations =  4.0

     total cpu time spent up to now is        5.0 secs

     total energy              =    -500.54364143 Ry
     estimated scf accuracy    <       3.43336858 Ry

     iteration #  4     ecut=    30.00 Ry     beta= 0.50
     Davidson diagonalization with overlap
     ethr =  7.91E-04,  avg # of iterations =  2.0

     total cpu time spent up to now is        5.0 secs

     total energy              =    -500.76758569 Ry
     estimated scf accuracy    <       0.85306766 Ry

     iteration #  5     ecut=    30.00 Ry     beta= 0.50
     Davidson diagonalization with overlap
     ethr =  3.33E-04,  avg # of iterations =  2.0

     total cpu time spent up to now is        5.1 secs

     total energy              =    -500.81992633 Ry
     estimated scf accuracy    <       0.68358274 Ry

     iteration #  6     ecut=    30.00 Ry     beta= 0.50
     Davidson diagonalization with overlap
     ethr =  2.67E-04,  avg # of iterations =  2.0

     total cpu time spent up to now is        5.2 secs

     total energy              =    -500.87952938 Ry
     estimated scf accuracy    <       0.10542873 Ry

     iteration #  7     ecut=    30.00 Ry     beta= 0.50
     Davidson diagonalization with overlap
     ethr =  4.12E-05,  avg # of iterations =  2.0

     total cpu time spent up to now is        5.3 secs

     total energy              =    -500.89096721 Ry
     estimated scf accuracy    <       0.03502867 Ry

     iteration #  8     ecut=    30.00 Ry     beta= 0.50
     Davidson diagonalization with overlap
     ethr =  1.37E-05,  avg # of iterations = 16.0

     total cpu time spent up to now is        5.4 secs

     total energy              =    -500.89450194 Ry
     estimated scf accuracy    <       0.03753363 Ry

     iteration #  9     ecut=    30.00 Ry     beta= 0.50
     Davidson diagonalization with overlap
     ethr =  1.37E-05,  avg # of iterations =  2.0

     total cpu time spent up to now is        5.5 secs

     total energy              =    -500.89716980 Ry
     estimated scf accuracy    <       0.00296071 Ry

     iteration # 10     ecut=    30.00 Ry     beta= 0.50
     Davidson diagonalization with overlap
     ethr =  1.16E-06,  avg # of iterations = 20.0

     total cpu time spent up to now is        5.7 secs

     total energy              =    -500.89757647 Ry
     estimated scf accuracy    <       0.00225317 Ry

     iteration # 11     ecut=    30.00 Ry     beta= 0.50
     Davidson diagonalization with overlap
     ethr =  8.80E-07,  avg # of iterations =  3.0

     total cpu time spent up to now is        5.8 secs

     total energy              =    -500.89772151 Ry
     estimated scf accuracy    <       0.00183666 Ry

     iteration # 12     ecut=    30.00 Ry     beta= 0.50
     Davidson diagonalization with overlap
     ethr =  7.17E-07,  avg # of iterations =  2.0

     total cpu time spent up to now is        5.9 secs

     total energy              =    -500.89785581 Ry
     estimated scf accuracy    <       0.00036014 Ry

     iteration # 13     ecut=    30.00 Ry     beta= 0.50
     Davidson diagonalization with overlap
     ethr =  1.41E-07,  avg # of iterations =  3.0

     total cpu time spent up to now is        6.0 secs

     total energy              =    -500.89789432 Ry
     estimated scf accuracy    <       0.00028028 Ry

     iteration # 14     ecut=    30.00 Ry     beta= 0.50
     Davidson diagonalization with overlap
     ethr =  1.09E-07,  avg # of iterations =  2.0

     total cpu time spent up to now is        6.1 secs

     total energy              =    -500.89791256 Ry
     estimated scf accuracy    <       0.00005629 Ry

     iteration # 15     ecut=    30.00 Ry     beta= 0.50
     Davidson diagonalization with overlap
     ethr =  2.20E-08,  avg # of iterations =  2.0

     total cpu time spent up to now is        6.1 secs

     total energy              =    -500.89791916 Ry
     estimated scf accuracy    <       0.00002498 Ry

     iteration # 16     ecut=    30.00 Ry     beta= 0.50
     Davidson diagonalization with overlap
     ethr =  9.76E-09,  avg # of iterations =  2.0

     total cpu time spent up to now is        6.2 secs

     total energy              =    -500.89792177 Ry
     estimated scf accuracy    <       0.00001382 Ry

     iteration # 17     ecut=    30.00 Ry     beta= 0.50
     Davidson diagonalization with overlap
     ethr =  5.40E-09,  avg # of iterations =  1.0

     total cpu time spent up to now is        6.3 secs

     total energy              =    -500.89792265 Ry
     estimated scf accuracy    <       0.00000219 Ry

     iteration # 18     ecut=    30.00 Ry     beta= 0.50
     Davidson diagonalization with overlap
     ethr =  8.55E-10,  avg # of iterations =  5.0

     total cpu time spent up to now is        6.4 secs

     total energy              =    -500.89792293 Ry
     estimated scf accuracy    <       0.00000474 Ry

     iteration # 19     ecut=    30.00 Ry     beta= 0.50
     Davidson diagonalization with overlap
     ethr =  8.55E-10,  avg # of iterations =  3.0

     total cpu time spent up to now is        6.5 secs

     End of self-consistent calculation

          k = 0.0000 0.0000 0.0000 ( 12104 PWs)   bands (ev):

    -6.6221  -5.8085  -5.4917  -5.3805  -5.1180  -5.0649  -4.7704  -4.5511
    -4.4623  -4.3896  -4.2795  -4.0757  -3.9681  -3.8604  -3.8307  -3.6661
    -3.5079  -3.2980  -3.1793  -2.8880  -2.8409  -2.7283  -2.5182  -2.4744
    -2.3684  -2.2233  -1.9280  -1.8552  -1.6642  -1.6180  -1.4388  -1.3225
    -1.2252  -1.1639  -0.9783  -0.9338  -0.8199  -0.7395  -0.6925  -0.5959
    -0.4650  -0.3453  -0.2272  -0.1799  -0.0978  -0.0769   0.0991   0.1615
     0.1902   0.3585   0.4306   0.5390   0.6255   0.6931   0.8128   0.8748
     0.9443   1.1235   1.1645   1.3253   1.3971   1.6128   1.7154   1.8631
     1.9197   2.0199   2.1266   2.1854   2.2561   2.3533   2.3949   2.5011
     2.6198   2.6664   2.7536   2.8222   2.9083   2.9827   3.0189   3.1457
     3.2017   3.3349   3.4620   3.4990   3.5169   3.6264   3.6895   3.7849
     3.8445   3.9166   3.9695   4.0143   4.0682   4.1810   4.2362   4.3234
     4.3440   4.4729   4.4907   4.6420   4.7083   4.7275   4.7686   4.8492
     4.9318   5.0250   5.0638   5.1302   5.1657   5.2225   5.2880   5.3259
     5.4087   5.4495   5.5255   5.5728   5.6276   5.6340   5.7233   5.8463
     5.8586   5.8932   5.9543   6.0289   6.0957   6.1532   6.1820   6.3367
     6.3508   6.4143   6.4891   6.5283   6.6235   6.6370   6.7262   6.7639
     6.8736   6.9134   6.9959   7.0312   7.1677   7.2438   7.2651   7.2843
     7.2954   7.4168   7.4602   7.5170   7.5892   7.6219   7.6758   7.7220
     7.8107   7.8734

     the Fermi energy is     6.3198 ev

!    total energy              =    -500.89792294 Ry
     estimated scf accuracy    <       0.00000048 Ry
     smearing contrib. (-TS)   =      -0.14149359 Ry
     internal energy E=F+TS    =    -500.75642934 Ry

     The total energy is F=E-TS. E is the sum of the following terms:
     one-electron contribution =     118.51033189 Ry
     hartree contribution      =      51.08537621 Ry
     xc contribution           =    -150.62154356 Ry
     ewald contribution        =    -519.73059388 Ry

     convergence has been achieved in  19 iterations

     Forces acting on atoms (cartesian axes, Ry/au):

     atom    1 type  1   force =     0.01448621   -0.01873437   -0.00684064
     atom    2 type  1   force =    -0.02862496    0.00168918    0.02369329
     atom    3 type  1   force =    -0.05681173    0.03447206    0.00276345
     atom    4 type  1   force =     0.02777606   -0.02079526   -0.00629826
     atom    5 type  1   force =     0.02828846   -0.01668903    0.03169468
     atom    6 type  1   force =    -0.00018735    0.00025262    0.00313016
     atom    7 type  1   force =    -0.00384523    0.01223147    0.02622496
     atom    8 type  1   force =     0.01162164   -0.01047022    0.00635338
     atom    9 type  1   force =    -0.04942217    0.02274587   -0.04056518
     atom   10 type  1   force =    -0.00506394   -0.00141265   -0.00938023
     atom   11 type  1   force =    -0.01736116   -0.00377496   -0.05097114
     atom   12 type  1   force =     0.05922244    0.00996808   -0.04309747
     atom   13 type  1   force =     0.01392167   -0.00501980   -0.01009251
     atom   14 type  1   force =     0.01168266   -0.03571924    0.01999560
     atom   15 type  1   force =    -0.01077202   -0.06801888   -0.03171047
     atom   16 type  1   force =    -0.00363183   -0.00559930    0.02689568
     atom   17 type  1   force =    -0.01020743    0.03588877    0.02782333
     atom   18 type  1   force =    -0.02259551   -0.01488560    0.00429309
     atom   19 type  1   force =     0.05170169   -0.07728973    0.04969898
     atom   20 type  1   force =    -0.06698137   -0.01192727   -0.01071217
     atom   21 type  1   force =     0.02096655    0.02087812    0.03205402
     atom   22 type  1   force =    -0.00977939   -0.00549009   -0.01608263
     atom   23 type  1   force =    -0.02762231    0.01090874    0.03737433
     atom   24 type  1   force =     0.03060639   -0.00781138   -0.01714494
     atom   25 type  1   force =     0.03344313    0.00491329   -0.02313416
     atom   26 type  1   force =    -0.01963825    0.06879883    0.01454273
     atom   27 type  1   force =    -0.01834143   -0.00568876   -0.00039133
     atom   28 type  1   force =    -0.01444523   -0.01604038   -0.00541146
     atom   29 type  1   force =    -0.01241200    0.02257534    0.01625637
     atom   30 type  1   force =    -0.00319148   -0.03242273   -0.02616215
     atom   31 type  1   force =    -0.00265334    0.03777544    0.04356166
     atom   32 type  1   force =     0.01211158   -0.00978978    0.06404459
     atom   33 type  1   force =    -0.01770277   -0.03818324    0.02281897
     atom   34 type  1   force =    -0.02954550    0.00033443   -0.02063270
     atom   35 type  1   force =    -0.00572239    0.00934538    0.00436175
     atom   36 type  1   force =     0.03609022   -0.03950357   -0.00809832
     atom   37 type  1   force =    -0.00283842    0.00830102   -0.00947020
     atom   38 type  1   force =     0.02326565    0.00246583   -0.00889223
     atom   39 type  1   force =    -0.00052174    0.03960015    0.03193019
     atom   40 type  1   force =    -0.01740542    0.03404872   -0.00914112
     atom   41 type  1   force =     0.01457600   -0.06432871   -0.03478115
     atom   42 type  1   force =     0.04700306    0.06769459    0.04209331
     atom   43 type  1   force =     0.01063278   -0.00160813   -0.01854754
     atom   44 type  1   force =     0.06822294   -0.04705703   -0.07477046
     atom   45 type  1   force =    -0.03658046   -0.02695264    0.02606572
     atom   46 type  1   force =    -0.02636614   -0.01591150   -0.02339292
     atom   47 type  1   force =     0.00659735   -0.01449479   -0.00939262
     atom   48 type  1   force =     0.00228570    0.04618271    0.05757352
     atom   49 type  1   force =    -0.01339712    0.01172435   -0.02582257
     atom   50 type  1   force =    -0.06513309   -0.08229230    0.04550242
     atom   51 type  1   force =     0.02353782   -0.01215384   -0.00987307
     atom   52 type  1   force =     0.00996780    0.02908618    0.01120054
     atom   53 type  1   force =    -0.08289338    0.08196955    0.00768271
     atom   54 type  1   force =    -0.00856448   -0.06017712   -0.00451068
     atom   55 type  1   force =    -0.02751640    0.03474937    0.10201097
     atom   56 type  1   force =     0.04425934   -0.04357761   -0.05116534
     atom   57 type  1   force =    -0.02196006   -0.02064856   -0.02228109
     atom   58 type  1   force =    -0.01123502   -0.00924918    0.01715643
     atom   59 type  1   force =    -0.00604834    0.02892189   -0.00826460
     atom   60 type  1   force =     0.00216911    0.03354952    0.00140946
     atom   61 type  1   force =    -0.00196268   -0.01599543    0.00382551
     atom   62 type  1   force =     0.02695659    0.01252009   -0.00666788
     atom   63 type  1   force =     0.04522577    0.05640936   -0.11352223
     atom   64 type  1   force =     0.08236293    0.07971216   -0.04681037

     Total force =     0.463613     Total SCF correction =     0.001242


     Computing stress (Cartesian axis) and pressure

          total   stress  (Ry/bohr**3)                   (kbar)     P=      -11.60
  -0.00018351  -0.00002578  -0.00000318          -27.00       -3.79       -0.47
  -0.00002578  -0.00009063   0.00005067           -3.79      -13.33        7.45
  -0.00000318   0.00005067   0.00003757           -0.47        7.45        5.53

 
     init_run     :      0.91s CPU      4.48s WALL (       1 calls)
     electrons    :      1.79s CPU      1.93s WALL (       1 calls)
     forces       :      0.03s CPU      0.03s WALL (       1 calls)
     stress       :      0.15s CPU      0.15s WALL (       1 calls)

     Called by init_run:
     wfcinit      :      0.41s CPU      3.81s WALL (       1 calls)
                                        3.81s GPU  (       1 calls)
     potinit      :      0.03s CPU      0.12s WALL (       1 calls)
     hinit0       :      0.45s CPU      0.48s WALL (       1 calls)

     Called by electrons:
     c_bands      :      1.18s CPU      1.25s WALL (      20 calls)
     sum_band     :      0.31s CPU      0.35s WALL (      20 calls)
     v_of_rho     :      0.12s CPU      0.22s WALL (      20 calls)
     mix_rho      :      0.15s CPU      0.16s WALL (      20 calls)

     Called by c_bands:
     init_us_2    :      0.05s CPU      0.05s WALL (      41 calls)
     init_us_2:gp :      0.05s CPU      0.05s WALL (      41 calls)
     regterg      :      1.04s CPU      1.10s WALL (      20 calls)

     Called by *egterg:
     rdiaghg      :      0.47s CPU      1.18s WALL (     104 calls)
                                        1.16s GPU  (     104 calls)
     h_psi        :      0.80s CPU      3.53s WALL (     106 calls)
                                        3.53s GPU  (     106 calls)
     g_psi        :      0.00s CPU      0.00s WALL (      85 calls)
                                        0.00s GPU  (      85 calls)

     Called by h_psi:
     h_psi:calbec :      0.38s CPU      3.04s WALL (     106 calls)
                                        3.04s GPU  (     106 calls)
     vloc_psi     :      0.36s CPU      0.43s WALL (     106 calls)
                                        0.42s GPU  (     106 calls)
     add_vuspsi   :      0.04s CPU      0.06s WALL (     106 calls)
                                        0.06s GPU  (     106 calls)

     General routines
     calbec       :      0.38s CPU      3.05s WALL (     111 calls)
     fft          :      0.54s CPU      0.67s WALL (     167 calls)
                                        0.12s GPU  (     106 calls)
     ffts         :      0.03s CPU      0.03s WALL (      20 calls)
     fftw         :      0.44s CPU      0.58s WALL (    2138 calls)
                                        0.51s GPU  (    2138 calls)
 
     Parallel routines
 
     PWSCF        :      2.91s CPU      6.67s WALL

 
   This run was terminated on:  12:16:37  11May2023            

=------------------------------------------------------------------------------=
   JOB DONE.
=------------------------------------------------------------------------------=
