An instance of this daemon is already running

     Program PWSCF v.7.1 starts on 11May2023 at 12: 7:37 

     This program is part of the open-source Quantum ESPRESSO suite
     for quantum simulation of materials; please cite
         "P. Giannozzi et al., J. Phys.:Condens. Matter 21 395502 (2009);
         "P. Giannozzi et al., J. Phys.:Condens. Matter 29 465901 (2017);
         "P. Giannozzi et al., J. Chem. Phys. 152 154105 (2020);
          URL http://www.quantum-espresso.org", 
     in publications or presentations arising from this work. More details at
     http://www.quantum-espresso.org/quote

     Parallel version (MPI & OpenMP), running on       4 processor cores
     Number of MPI processes:                 4
     Threads/MPI process:                     1

     MPI processes distributed on     1 nodes
     701365 MiB available memory on the printing compute node when the environment starts
 
     Reading input from pw-si-30.in
Warning: card &CELL ignored
Warning: card / ignored

     Current dimensions of program PWSCF are:
     Max number of different atomic species (ntypx) = 10
     Max number of k-points (npk) =  40000
     Max angular momentum in pseudopotentials (lmaxx) =  4

     IMPORTANT: XC functional enforced from input :
     Exchange-correlation= PBE
                           (   1   4   3   4   0   0   0)
     Any further DFT definition will be discarded
     Please, verify this is what you really want


     gamma-point specific algorithms are used
 
     K-points division:     npool     =       2
     R & G space division:  proc/nbgrp/npool/nimage =       2
     Subspace diagonalization in iterative solution of the eigenvalue problem:
     a serial algorithm will be used

     Message from routine divide_et_impera:
     suboptimal parallelization: some nodes have no k-points
 
     Parallelization info
     --------------------
     sticks:   dense  smooth     PW     G-vecs:    dense   smooth      PW
     Min        1916    1916    502                89532    89532   12150
     Max        1917    1917    503                89537    89537   12153
     Sum        3833    3833   1005               179069   179069   24303
 
     Using Slab Decomposition
 


     bravais-lattice index     =            0
     lattice parameter (alat)  =      20.0625  a.u.
     unit-cell volume          =    8075.1859 (a.u.)^3
     number of atoms/cell      =           64
     number of atomic types    =            1
     number of electrons       =       256.00
     number of Kohn-Sham states=          154
     kinetic-energy cutoff     =      30.0000  Ry
     charge density cutoff     =     120.0000  Ry
     scf convergence threshold =      1.0E-06
     mixing beta               =       0.5000
     number of iterations used =            8  plain     mixing
     Exchange-correlation= PBE
                           (   1   4   3   4   0   0   0)

     GPU acceleration is ACTIVE.
     GPU-aware MPI enabled

     Message from routine print_cuda_info:
     High GPU oversubscription detected. Are you sure this is what you want?

     celldm(1)=  20.062460  celldm(2)=   0.000000  celldm(3)=   0.000000
     celldm(4)=   0.000000  celldm(5)=   0.000000  celldm(6)=   0.000000

     crystal axes: (cart. coord. in units of alat)
               a(1) = (   1.000000   0.000000   0.000000 )  
               a(2) = (   0.000000   1.000000   0.000000 )  
               a(3) = (   0.000000   0.000000   1.000000 )  

     reciprocal axes: (cart. coord. in units 2 pi/alat)
               b(1) = (  1.000000  0.000000  0.000000 )  
               b(2) = (  0.000000  1.000000  0.000000 )  
               b(3) = (  0.000000  0.000000  1.000000 )  


     PseudoPot. # 1 for Si read from file:
     /home/ppiaggi/pseudos/Si_ONCV_PBE_sr.upf
     MD5 check sum: 8553c464762ac42b85b1eed164b4d029
     Pseudo is Norm-conserving, Zval =  4.0
     Generated using ONCVPSP code by D. R. Hamann
     Using radial grid of 1510 points,  4 beta functions with: 
                l(1) =   0
                l(2) =   0
                l(3) =   1
                l(4) =   1

     atomic species   valence    mass     pseudopotential
        Si             4.00    28.08500     Si( 1.00)

     No symmetry found



   Cartesian axes

     site n.     atom                  positions (alat units)
         1           Si  tau(   1) = (   0.3579070   0.3573850   0.5174440  )
         2           Si  tau(   2) = (   0.6048510   0.7715850   0.5808120  )
         3           Si  tau(   3) = (   0.1179550   0.2848190   0.9143980  )
         4           Si  tau(   4) = (   0.2965200   0.9895670   0.9476580  )
         5           Si  tau(   5) = (   0.0093627   0.8549570   0.0627752  )
         6           Si  tau(   6) = (   0.8478370   0.6106740   0.6162620  )
         7           Si  tau(   7) = (   0.1786670   0.3081490   0.3127310  )
         8           Si  tau(   8) = (   0.0195757   0.6145440   0.2940910  )
         9           Si  tau(   9) = (   0.3411590   0.5444670   0.3517250  )
        10           Si  tau(  10) = (   0.8092940   0.6178430   0.3904630  )
        11           Si  tau(  11) = (   0.1017800   0.1395310   0.0662544  )
        12           Si  tau(  12) = (   0.4101860   0.8814550   0.5961020  )
        13           Si  tau(  13) = (   0.8386010   0.0971048   0.7064930  )
        14           Si  tau(  14) = (   0.6348270   0.8555040   0.7904750  )
        15           Si  tau(  15) = (   0.9942880   0.7666020   0.8670510  )
        16           Si  tau(  16) = (   0.7263620   0.2437630   0.0546853  )
        17           Si  tau(  17) = (   0.4618590   0.1770010   0.5406050  )
        18           Si  tau(  18) = (   0.3625400   0.1873880   0.3300070  )
        19           Si  tau(  19) = (   0.4065080   0.1031790   0.7678730  )
        20           Si  tau(  20) = (   0.5321930   0.2639610   0.1776310  )
        21           Si  tau(  21) = (   0.1960740   0.5268330   0.9140710  )
        22           Si  tau(  22) = (   0.1999140   0.6258860   0.5467630  )
        23           Si  tau(  23) = (   0.2146110   0.3333040   0.7114190  )
        24           Si  tau(  24) = (   0.6608470   0.8032490   0.9989740  )
        25           Si  tau(  25) = (   0.7041840   0.4770990   0.7328650  )
        26           Si  tau(  26) = (   0.9179290   0.2546260   0.2001100  )
        27           Si  tau(  27) = (   0.4158460   0.8139960   0.8347590  )
        28           Si  tau(  28) = (   0.7584900   0.0912360   0.2756460  )
        29           Si  tau(  29) = (   0.6131050   0.0294702   0.6200250  )
        30           Si  tau(  30) = (   0.2147030   0.5309670   0.1525800  )
        31           Si  tau(  31) = (   0.8684450   0.2598160   0.8594490  )
        32           Si  tau(  32) = (   0.2255300   0.8714790   0.2502080  )
        33           Si  tau(  33) = (   0.6441310   0.0088072   0.0049973  )
        34           Si  tau(  34) = (   0.7611090   0.7707810   0.2199740  )
        35           Si  tau(  35) = (   0.3144950   0.2060310   0.1236590  )
        36           Si  tau(  36) = (   0.6993340   0.3291870   0.5336440  )
        37           Si  tau(  37) = (   0.7289800   0.6126460   0.0961266  )
        38           Si  tau(  38) = (   0.1825940   0.8047360   0.7371210  )
        39           Si  tau(  39) = (   0.6830300   0.9083560   0.4162500  )
        40           Si  tau(  40) = (   0.5334210   0.5419630   0.1793790  )
        41           Si  tau(  41) = (   0.0041846   0.5698860   0.0644120  )
        42           Si  tau(  42) = (   0.5960630   0.6202970   0.3710040  )
        43           Si  tau(  43) = (   0.3623410   0.7145280   0.1831640  )
        44           Si  tau(  44) = (   0.2290310   0.9675840   0.4393170  )
        45           Si  tau(  45) = (   0.0921598   0.7813790   0.3954690  )
        46           Si  tau(  46) = (   0.8248630   0.4873450   0.9328920  )
        47           Si  tau(  47) = (   0.3771290   0.4636890   0.0462582  )
        48           Si  tau(  48) = (   0.3540400   0.5831560   0.7752400  )
        49           Si  tau(  49) = (   0.0704636   0.0460925   0.2668580  )
        50           Si  tau(  50) = (   0.9291770   0.2985510   0.5517300  )
        51           Si  tau(  51) = (   0.3699030   0.2969630   0.8877080  )
        52           Si  tau(  52) = (   0.8470430   0.9985110   0.0856368  )
        53           Si  tau(  53) = (   0.9941980   0.0005277   0.8738150  )
        54           Si  tau(  54) = (   0.4988180   0.8986570   0.1807480  )
        55           Si  tau(  55) = (   0.2060480   0.0238730   0.6997270  )
        56           Si  tau(  56) = (   0.8882140   0.4098240   0.3727600  )
        57           Si  tau(  57) = (   0.8728560   0.9190420   0.5691880  )
        58           Si  tau(  58) = (   0.4416400   0.8021280   0.4005090  )
        59           Si  tau(  59) = (   0.0329664   0.0758613   0.5332820  )
        60           Si  tau(  60) = (   0.6158490   0.1856100   0.3808880  )
        61           Si  tau(  61) = (   0.5906340   0.2691190   0.8832580  )
        62           Si  tau(  62) = (   0.0122820   0.7641390   0.6326540  )
        63           Si  tau(  63) = (   0.5030830   0.3935620   0.6911010  )
        64           Si  tau(  64) = (   0.1301990   0.4186440   0.5067210  )

     number of k points=     1  Fermi-Dirac smearing, width (Ry)=  0.0100
                       cart. coord. in units 2pi/alat
        k(    1) = (   0.0000000   0.0000000   0.0000000), wk =   2.0000000

     Dense  grid:    89535 G-vectors     FFT dimensions: (  72,  72,  72)

     Estimated max dynamical RAM per process >     144.02 MB

     Estimated total dynamical RAM >     554.22 MB

     Initial potential from superposition of free atoms

     starting charge     255.9608, renormalised to     256.0000
     Starting wfcs are  256 randomized atomic wfcs

     total cpu time spent up to now is        4.5 secs

     Self-consistent Calculation

     iteration #  1     ecut=    30.00 Ry     beta= 0.50
     Davidson diagonalization with overlap
     ethr =  1.00E-02,  avg # of iterations =  3.0

     Threshold (ethr) on eigenvalues was too large:
     Diagonalizing with lowered threshold

     Davidson diagonalization with overlap
     ethr =  5.19E-04,  avg # of iterations =  4.0

     total cpu time spent up to now is        4.7 secs

     total energy              =    -500.51471051 Ry
     estimated scf accuracy    <       1.69994832 Ry

     iteration #  2     ecut=    30.00 Ry     beta= 0.50
     Davidson diagonalization with overlap
     ethr =  6.64E-04,  avg # of iterations =  4.0

     total cpu time spent up to now is        4.8 secs

     total energy              =    -499.89585535 Ry
     estimated scf accuracy    <       7.41047034 Ry

     iteration #  3     ecut=    30.00 Ry     beta= 0.50
     Davidson diagonalization with overlap
     ethr =  6.64E-04,  avg # of iterations =  5.0

     total cpu time spent up to now is        4.9 secs

     total energy              =    -500.59428693 Ry
     estimated scf accuracy    <       3.87023926 Ry

     iteration #  4     ecut=    30.00 Ry     beta= 0.50
     Davidson diagonalization with overlap
     ethr =  6.64E-04,  avg # of iterations =  2.0

     total cpu time spent up to now is        5.0 secs

     total energy              =    -500.84819495 Ry
     estimated scf accuracy    <       0.69486203 Ry

     iteration #  5     ecut=    30.00 Ry     beta= 0.50
     Davidson diagonalization with overlap
     ethr =  2.71E-04,  avg # of iterations =  2.0

     total cpu time spent up to now is        5.1 secs

     total energy              =    -500.88522214 Ry
     estimated scf accuracy    <       0.57345034 Ry

     iteration #  6     ecut=    30.00 Ry     beta= 0.50
     Davidson diagonalization with overlap
     ethr =  2.24E-04,  avg # of iterations =  2.0

     total cpu time spent up to now is        5.2 secs

     total energy              =    -500.93604311 Ry
     estimated scf accuracy    <       0.12914999 Ry

     iteration #  7     ecut=    30.00 Ry     beta= 0.50
     Davidson diagonalization with overlap
     ethr =  5.04E-05,  avg # of iterations =  3.0

     total cpu time spent up to now is        5.3 secs

     total energy              =    -500.94668813 Ry
     estimated scf accuracy    <       0.04207383 Ry

     iteration #  8     ecut=    30.00 Ry     beta= 0.50
     Davidson diagonalization with overlap
     ethr =  1.64E-05,  avg # of iterations = 10.0

     total cpu time spent up to now is        5.4 secs

     total energy              =    -500.95038553 Ry
     estimated scf accuracy    <       0.04054198 Ry

     iteration #  9     ecut=    30.00 Ry     beta= 0.50
     Davidson diagonalization with overlap
     ethr =  1.58E-05,  avg # of iterations =  2.0

     total cpu time spent up to now is        5.5 secs

     total energy              =    -500.95308317 Ry
     estimated scf accuracy    <       0.00332145 Ry

     iteration # 10     ecut=    30.00 Ry     beta= 0.50
     Davidson diagonalization with overlap
     ethr =  1.30E-06,  avg # of iterations = 13.0

     total cpu time spent up to now is        5.6 secs

     total energy              =    -500.95335659 Ry
     estimated scf accuracy    <       0.00643582 Ry

     iteration # 11     ecut=    30.00 Ry     beta= 0.50
     Davidson diagonalization with overlap
     ethr =  1.30E-06,  avg # of iterations =  2.0

     total cpu time spent up to now is        5.7 secs

     total energy              =    -500.95384859 Ry
     estimated scf accuracy    <       0.00069472 Ry

     iteration # 12     ecut=    30.00 Ry     beta= 0.50
     Davidson diagonalization with overlap
     ethr =  2.71E-07,  avg # of iterations =  3.0

     total cpu time spent up to now is        5.8 secs

     total energy              =    -500.95390648 Ry
     estimated scf accuracy    <       0.00035411 Ry

     iteration # 13     ecut=    30.00 Ry     beta= 0.50
     Davidson diagonalization with overlap
     ethr =  1.38E-07,  avg # of iterations =  3.0

     total cpu time spent up to now is        5.9 secs

     total energy              =    -500.95393228 Ry
     estimated scf accuracy    <       0.00046746 Ry

     iteration # 14     ecut=    30.00 Ry     beta= 0.50
     Davidson diagonalization with overlap
     ethr =  1.38E-07,  avg # of iterations =  2.0

     total cpu time spent up to now is        6.0 secs

     total energy              =    -500.95395815 Ry
     estimated scf accuracy    <       0.00004599 Ry

     iteration # 15     ecut=    30.00 Ry     beta= 0.50
     Davidson diagonalization with overlap
     ethr =  1.80E-08,  avg # of iterations =  4.0

     total cpu time spent up to now is        6.1 secs

     total energy              =    -500.95396271 Ry
     estimated scf accuracy    <       0.00005967 Ry

     iteration # 16     ecut=    30.00 Ry     beta= 0.50
     Davidson diagonalization with overlap
     ethr =  1.80E-08,  avg # of iterations =  2.0

     total cpu time spent up to now is        6.1 secs

     total energy              =    -500.95396737 Ry
     estimated scf accuracy    <       0.00001341 Ry

     iteration # 17     ecut=    30.00 Ry     beta= 0.50
     Davidson diagonalization with overlap
     ethr =  5.24E-09,  avg # of iterations =  2.0

     total cpu time spent up to now is        6.2 secs

     total energy              =    -500.95396814 Ry
     estimated scf accuracy    <       0.00000436 Ry

     iteration # 18     ecut=    30.00 Ry     beta= 0.50
     Davidson diagonalization with overlap
     ethr =  1.70E-09,  avg # of iterations =  3.0

     total cpu time spent up to now is        6.3 secs

     total energy              =    -500.95396852 Ry
     estimated scf accuracy    <       0.00000970 Ry

     iteration # 19     ecut=    30.00 Ry     beta= 0.50
     Davidson diagonalization with overlap
     ethr =  1.70E-09,  avg # of iterations =  2.0

     total cpu time spent up to now is        6.4 secs

     total energy              =    -500.95396898 Ry
     estimated scf accuracy    <       0.00000127 Ry

     iteration # 20     ecut=    30.00 Ry     beta= 0.50
     Davidson diagonalization with overlap
     ethr =  4.95E-10,  avg # of iterations =  2.0

     total cpu time spent up to now is        6.5 secs

     End of self-consistent calculation

          k = 0.0000 0.0000 0.0000 ( 11168 PWs)   bands (ev):

    -5.8003  -4.9959  -4.8864  -4.7738  -4.6956  -4.5343  -4.4012  -3.8946
    -3.8793  -3.7219  -3.6057  -3.4652  -3.4188  -3.3016  -3.2308  -3.1464
    -2.9229  -2.8351  -2.5885  -2.4833  -2.1918  -2.1385  -1.9930  -1.8625
    -1.7674  -1.5277  -1.2916  -1.0784  -1.0024  -0.7957  -0.7379  -0.6825
    -0.5866  -0.4238  -0.3452  -0.2737  -0.1460  -0.0079   0.0413   0.1351
     0.2602   0.3577   0.4338   0.4729   0.5226   0.6945   0.7920   0.8887
     1.0085   1.0536   1.0892   1.2545   1.3016   1.4532   1.5670   1.6873
     1.7458   1.8350   1.9962   2.0103   2.1444   2.1808   2.2756   2.4147
     2.5215   2.6266   2.7263   2.7846   2.7959   2.8961   2.9783   3.1048
     3.1477   3.1975   3.3012   3.3925   3.5421   3.6477   3.7336   3.7710
     3.9625   4.0326   4.1245   4.2160   4.3546   4.3676   4.4660   4.5339
     4.6573   4.7353   4.7647   4.8401   4.9231   5.1237   5.1485   5.1740
     5.3039   5.3480   5.4318   5.4375   5.4842   5.5600   5.5890   5.6336
     5.7443   5.7931   5.8872   5.9148   6.0619   6.1404   6.1728   6.2110
     6.2852   6.3506   6.3753   6.4226   6.4756   6.5715   6.5950   6.6900
     6.7328   6.8456   6.8528   6.8899   7.0309   7.1125   7.1533   7.2008
     7.2353   7.2615   7.3785   7.4120   7.4320   7.5205   7.5456   7.6363
     7.6904   7.7516   7.7757   7.8488   7.8777   7.9220   8.0928   8.1338
     8.1953   8.2874   8.3592   8.3949   8.4579   8.5630   8.6090   8.6581
     8.7350   8.7837

     the Fermi energy is     7.2094 ev

!    total energy              =    -500.95396887 Ry
     estimated scf accuracy    <       0.00000039 Ry
     smearing contrib. (-TS)   =      -0.15570028 Ry
     internal energy E=F+TS    =    -500.79826859 Ry

     The total energy is F=E-TS. E is the sum of the following terms:
     one-electron contribution =     162.98769922 Ry
     hartree contribution      =      36.79494228 Ry
     xc contribution           =    -152.39153728 Ry
     ewald contribution        =    -548.18937282 Ry

     convergence has been achieved in  20 iterations

     Forces acting on atoms (cartesian axes, Ry/au):

     atom    1 type  1   force =    -0.02626820    0.06128180   -0.02255667
     atom    2 type  1   force =     0.04402925   -0.03968912   -0.00806407
     atom    3 type  1   force =    -0.01078207    0.05740274   -0.06053308
     atom    4 type  1   force =     0.01370299    0.01459071   -0.01379068
     atom    5 type  1   force =     0.02447538   -0.01616314    0.05429444
     atom    6 type  1   force =    -0.01951492    0.01203234   -0.01423491
     atom    7 type  1   force =    -0.02784090    0.01189483   -0.02183912
     atom    8 type  1   force =    -0.02094441   -0.06200756   -0.05340617
     atom    9 type  1   force =     0.02033822    0.00446714    0.03350845
     atom   10 type  1   force =     0.02530394   -0.00200660    0.03068759
     atom   11 type  1   force =    -0.01852663   -0.03922385    0.02478405
     atom   12 type  1   force =    -0.03302420    0.04294119    0.04553095
     atom   13 type  1   force =    -0.01598234    0.00865927    0.01658146
     atom   14 type  1   force =     0.00149025    0.01470105   -0.01064841
     atom   15 type  1   force =     0.00707391   -0.02375183   -0.01953560
     atom   16 type  1   force =     0.03971690    0.00796440   -0.00422230
     atom   17 type  1   force =     0.00326440   -0.05623003    0.02183125
     atom   18 type  1   force =     0.00360545   -0.02328946    0.07330812
     atom   19 type  1   force =     0.02207847   -0.00941759    0.00722004
     atom   20 type  1   force =     0.00274401    0.04760238    0.01203159
     atom   21 type  1   force =    -0.05920582   -0.03225985   -0.00668561
     atom   22 type  1   force =     0.01382536    0.01481623   -0.00864754
     atom   23 type  1   force =     0.00480775    0.00595141    0.00940793
     atom   24 type  1   force =    -0.00019972   -0.07322863    0.00930872
     atom   25 type  1   force =     0.03072420    0.00131901    0.00247182
     atom   26 type  1   force =     0.00340599    0.00258291    0.00496517
     atom   27 type  1   force =    -0.01219102   -0.01937444   -0.00567286
     atom   28 type  1   force =     0.08439116   -0.05258141   -0.03802487
     atom   29 type  1   force =     0.00451165   -0.01086772    0.01453017
     atom   30 type  1   force =    -0.06751342    0.00770398    0.07764190
     atom   31 type  1   force =     0.00975281    0.01336960    0.01514945
     atom   32 type  1   force =    -0.00597306   -0.00334121   -0.06796206
     atom   33 type  1   force =    -0.05319301    0.08767306   -0.01962750
     atom   34 type  1   force =     0.02331670    0.09047857    0.06875696
     atom   35 type  1   force =    -0.00120094    0.01876871   -0.07623633
     atom   36 type  1   force =     0.00913369    0.00677140    0.00658016
     atom   37 type  1   force =    -0.03237504   -0.05760814   -0.07071431
     atom   38 type  1   force =     0.07686862    0.00045537    0.05193975
     atom   39 type  1   force =     0.03339195    0.00878109    0.01027146
     atom   40 type  1   force =     0.00711379   -0.02008507    0.00154486
     atom   41 type  1   force =    -0.00642624    0.01327601   -0.00761232
     atom   42 type  1   force =    -0.05119739    0.03041260    0.03687691
     atom   43 type  1   force =     0.00807910   -0.04071034   -0.00390229
     atom   44 type  1   force =     0.02289132    0.04424263    0.06156117
     atom   45 type  1   force =     0.01283733    0.01742710    0.07263697
     atom   46 type  1   force =     0.00274825   -0.02824308    0.00159692
     atom   47 type  1   force =     0.05008718   -0.06802006   -0.04861445
     atom   48 type  1   force =     0.02028412    0.02354276   -0.01950369
     atom   49 type  1   force =    -0.01825358    0.01590881    0.01473633
     atom   50 type  1   force =     0.01756957   -0.05987056    0.03843022
     atom   51 type  1   force =    -0.00057543    0.00623599    0.01996300
     atom   52 type  1   force =     0.01813992   -0.00936626    0.02000911
     atom   53 type  1   force =    -0.00353449    0.02082755   -0.00690286
     atom   54 type  1   force =     0.02762571    0.02437674   -0.01735797
     atom   55 type  1   force =    -0.02886322    0.01515803   -0.01311128
     atom   56 type  1   force =     0.00597901   -0.00056446   -0.04831451
     atom   57 type  1   force =    -0.02342202    0.00790019   -0.03628743
     atom   58 type  1   force =     0.02135339   -0.04318163   -0.06768363
     atom   59 type  1   force =     0.00563491    0.02607742   -0.00250671
     atom   60 type  1   force =    -0.06265769    0.04380660    0.02870498
     atom   61 type  1   force =    -0.01453264   -0.01981760   -0.05068636
     atom   62 type  1   force =    -0.07397273   -0.03915776   -0.06306896
     atom   63 type  1   force =    -0.00813031    0.01665543    0.01814883
     atom   64 type  1   force =    -0.02599521    0.00200030    0.00294383

     Total force =     0.470937     Total SCF correction =     0.001253


     Computing stress (Cartesian axis) and pressure

          total   stress  (Ry/bohr**3)                   (kbar)     P=       16.80
   0.00015471  -0.00004647   0.00001249           22.76       -6.84        1.84
  -0.00004647  -0.00001290   0.00004690           -6.84       -1.90        6.90
   0.00001249   0.00004690   0.00020078            1.84        6.90       29.54

 
     init_run     :      0.96s CPU      4.46s WALL (       1 calls)
     electrons    :      1.79s CPU      1.94s WALL (       1 calls)
     forces       :      0.03s CPU      0.03s WALL (       1 calls)
     stress       :      0.13s CPU      0.14s WALL (       1 calls)

     Called by init_run:
     wfcinit      :      0.45s CPU      3.78s WALL (       1 calls)
                                        3.78s GPU  (       1 calls)
     potinit      :      0.04s CPU      0.14s WALL (       1 calls)
     hinit0       :      0.45s CPU      0.48s WALL (       1 calls)

     Called by electrons:
     c_bands      :      1.17s CPU      1.24s WALL (      21 calls)
     sum_band     :      0.32s CPU      0.37s WALL (      21 calls)
     v_of_rho     :      0.13s CPU      0.24s WALL (      21 calls)
     mix_rho      :      0.15s CPU      0.16s WALL (      21 calls)

     Called by c_bands:
     init_us_2    :      0.05s CPU      0.06s WALL (      43 calls)
     init_us_2:gp :      0.05s CPU      0.05s WALL (      43 calls)
     regterg      :      1.02s CPU      1.08s WALL (      21 calls)

     Called by *egterg:
     rdiaghg      :      0.43s CPU      1.14s WALL (      95 calls)
                                        1.12s GPU  (      95 calls)
     h_psi        :      0.86s CPU      3.52s WALL (      97 calls)
                                        3.52s GPU  (      97 calls)
     g_psi        :      0.00s CPU      0.00s WALL (      75 calls)
                                        0.00s GPU  (      75 calls)

     Called by h_psi:
     h_psi:calbec :      0.43s CPU      3.02s WALL (      97 calls)
                                        3.02s GPU  (      97 calls)
     vloc_psi     :      0.38s CPU      0.45s WALL (      97 calls)
                                        0.44s GPU  (      97 calls)
     add_vuspsi   :      0.03s CPU      0.05s WALL (      97 calls)
                                        0.05s GPU  (      97 calls)

     General routines
     calbec       :      0.43s CPU      3.02s WALL (     102 calls)
     fft          :      0.55s CPU      0.68s WALL (     175 calls)
                                        0.13s GPU  (     111 calls)
     ffts         :      0.03s CPU      0.04s WALL (      21 calls)
     fftw         :      0.47s CPU      0.60s WALL (    2209 calls)
                                        0.53s GPU  (    2209 calls)
 
     Parallel routines
 
     PWSCF        :      2.95s CPU      6.64s WALL

 
   This run was terminated on:  12: 7:43  11May2023            

=------------------------------------------------------------------------------=
   JOB DONE.
=------------------------------------------------------------------------------=
