An instance of this daemon is already running

     Program PWSCF v.7.1 starts on 11May2023 at 12: 5:16 

     This program is part of the open-source Quantum ESPRESSO suite
     for quantum simulation of materials; please cite
         "P. Giannozzi et al., J. Phys.:Condens. Matter 21 395502 (2009);
         "P. Giannozzi et al., J. Phys.:Condens. Matter 29 465901 (2017);
         "P. Giannozzi et al., J. Chem. Phys. 152 154105 (2020);
          URL http://www.quantum-espresso.org", 
     in publications or presentations arising from this work. More details at
     http://www.quantum-espresso.org/quote

     Parallel version (MPI & OpenMP), running on       4 processor cores
     Number of MPI processes:                 4
     Threads/MPI process:                     1

     MPI processes distributed on     1 nodes
     701381 MiB available memory on the printing compute node when the environment starts
 
     Reading input from pw-si-14.in
Warning: card &CELL ignored
Warning: card / ignored

     Current dimensions of program PWSCF are:
     Max number of different atomic species (ntypx) = 10
     Max number of k-points (npk) =  40000
     Max angular momentum in pseudopotentials (lmaxx) =  4

     IMPORTANT: XC functional enforced from input :
     Exchange-correlation= PBE
                           (   1   4   3   4   0   0   0)
     Any further DFT definition will be discarded
     Please, verify this is what you really want


     gamma-point specific algorithms are used
 
     K-points division:     npool     =       2
     R & G space division:  proc/nbgrp/npool/nimage =       2
     Subspace diagonalization in iterative solution of the eigenvalue problem:
     a serial algorithm will be used

     Message from routine divide_et_impera:
     suboptimal parallelization: some nodes have no k-points
 
     Parallelization info
     --------------------
     sticks:   dense  smooth     PW     G-vecs:    dense   smooth      PW
     Min        1968    1968    520                92771    92771   12632
     Max        1969    1969    521                92772    92772   12637
     Sum        3937    3937   1041               185543   185543   25269
 
     Using Slab Decomposition
 


     bravais-lattice index     =            0
     lattice parameter (alat)  =      20.2903  a.u.
     unit-cell volume          =    8353.4311 (a.u.)^3
     number of atoms/cell      =           64
     number of atomic types    =            1
     number of electrons       =       256.00
     number of Kohn-Sham states=          154
     kinetic-energy cutoff     =      30.0000  Ry
     charge density cutoff     =     120.0000  Ry
     scf convergence threshold =      1.0E-06
     mixing beta               =       0.5000
     number of iterations used =            8  plain     mixing
     Exchange-correlation= PBE
                           (   1   4   3   4   0   0   0)

     GPU acceleration is ACTIVE.
     GPU-aware MPI enabled

     Message from routine print_cuda_info:
     High GPU oversubscription detected. Are you sure this is what you want?

     celldm(1)=  20.290292  celldm(2)=   0.000000  celldm(3)=   0.000000
     celldm(4)=   0.000000  celldm(5)=   0.000000  celldm(6)=   0.000000

     crystal axes: (cart. coord. in units of alat)
               a(1) = (   1.000000   0.000000   0.000000 )  
               a(2) = (   0.000000   1.000000   0.000000 )  
               a(3) = (   0.000000   0.000000   1.000000 )  

     reciprocal axes: (cart. coord. in units 2 pi/alat)
               b(1) = (  1.000000  0.000000  0.000000 )  
               b(2) = (  0.000000  1.000000  0.000000 )  
               b(3) = (  0.000000  0.000000  1.000000 )  


     PseudoPot. # 1 for Si read from file:
     /home/ppiaggi/pseudos/Si_ONCV_PBE_sr.upf
     MD5 check sum: 8553c464762ac42b85b1eed164b4d029
     Pseudo is Norm-conserving, Zval =  4.0
     Generated using ONCVPSP code by D. R. Hamann
     Using radial grid of 1510 points,  4 beta functions with: 
                l(1) =   0
                l(2) =   0
                l(3) =   1
                l(4) =   1

     atomic species   valence    mass     pseudopotential
        Si             4.00    28.08500     Si( 1.00)

     No symmetry found



   Cartesian axes

     site n.     atom                  positions (alat units)
         1           Si  tau(   1) = (   0.3665600   0.3606010   0.4536180  )
         2           Si  tau(   2) = (   0.5507190   0.8428770   0.5775420  )
         3           Si  tau(   3) = (   0.0260758   0.2614850   0.8077260  )
         4           Si  tau(   4) = (   0.2940540   0.0078362   0.9619310  )
         5           Si  tau(   5) = (   0.0864665   0.9240910   0.9482570  )
         6           Si  tau(   6) = (   0.8043670   0.7483490   0.5864770  )
         7           Si  tau(   7) = (   0.1957670   0.3647320   0.2339820  )
         8           Si  tau(   8) = (   0.0733837   0.6667590   0.4454800  )
         9           Si  tau(   9) = (   0.3984990   0.5547750   0.3665240  )
        10           Si  tau(  10) = (   0.8303140   0.6602160   0.3800870  )
        11           Si  tau(  11) = (   0.9520610   0.0628611   0.0979151  )
        12           Si  tau(  12) = (   0.3530540   0.8658290   0.6831360  )
        13           Si  tau(  13) = (   0.7704070   0.0642594   0.7257720  )
        14           Si  tau(  14) = (   0.5749490   0.8471210   0.8238490  )
        15           Si  tau(  15) = (   0.0191383   0.6594230   0.9391940  )
        16           Si  tau(  16) = (   0.7272040   0.2351210   0.1228220  )
        17           Si  tau(  17) = (   0.3924860   0.2040060   0.6118600  )
        18           Si  tau(  18) = (   0.3934730   0.1481790   0.3372400  )
        19           Si  tau(  19) = (   0.4444980   0.0684778   0.8023750  )
        20           Si  tau(  20) = (   0.4912090   0.2895070   0.1333960  )
        21           Si  tau(  21) = (   0.1062690   0.4547090   0.9217790  )
        22           Si  tau(  22) = (   0.2752240   0.5587520   0.5516500  )
        23           Si  tau(  23) = (   0.1668950   0.2774610   0.6198180  )
        24           Si  tau(  24) = (   0.6313170   0.7545720   0.0571101  )
        25           Si  tau(  25) = (   0.7533520   0.5714190   0.7080810  )
        26           Si  tau(  26) = (   0.9946280   0.2775410   0.2468040  )
        27           Si  tau(  27) = (   0.4544790   0.6382450   0.8310260  )
        28           Si  tau(  28) = (   0.8193110   0.1200680   0.2691460  )
        29           Si  tau(  29) = (   0.5869540   0.0343986   0.6332230  )
        30           Si  tau(  30) = (   0.2181340   0.5642580   0.1488890  )
        31           Si  tau(  31) = (   0.8479810   0.2358210   0.9409140  )
        32           Si  tau(  32) = (   0.2318340   0.7460640   0.2766740  )
        33           Si  tau(  33) = (   0.5791750   0.1052340   0.9744770  )
        34           Si  tau(  34) = (   0.9086000   0.8578230   0.3009900  )
        35           Si  tau(  35) = (   0.2740040   0.2103780   0.1065730  )
        36           Si  tau(  36) = (   0.6680470   0.3762900   0.5190780  )
        37           Si  tau(  37) = (   0.7349990   0.5725850   0.0933635  )
        38           Si  tau(  38) = (   0.3388140   0.8001940   0.9109460  )
        39           Si  tau(  39) = (   0.6876190   0.9378030   0.4025020  )
        40           Si  tau(  40) = (   0.5596450   0.4878490   0.2128900  )
        41           Si  tau(  41) = (   0.9746030   0.5544220   0.1213480  )
        42           Si  tau(  42) = (   0.6268000   0.5675790   0.4473300  )
        43           Si  tau(  43) = (   0.4169890   0.7630020   0.0952784  )
        44           Si  tau(  44) = (   0.2963840   0.9683270   0.3014000  )
        45           Si  tau(  45) = (   0.1701020   0.7427580   0.6313140  )
        46           Si  tau(  46) = (   0.8330700   0.4549780   0.8849910  )
        47           Si  tau(  47) = (   0.3833400   0.5503020   0.9977320  )
        48           Si  tau(  48) = (   0.4220040   0.4655720   0.7029930  )
        49           Si  tau(  49) = (   0.1006970   0.8699990   0.1757830  )
        50           Si  tau(  50) = (   0.8057190   0.1961980   0.5525940  )
        51           Si  tau(  51) = (   0.2798530   0.3416500   0.9218300  )
        52           Si  tau(  52) = (   0.7994430   0.9156160   0.0673183  )
        53           Si  tau(  53) = (   0.0381036   0.0786237   0.7138420  )
        54           Si  tau(  54) = (   0.5532540   0.9753500   0.1572840  )
        55           Si  tau(  55) = (   0.1731990   0.0539844   0.5395790  )
        56           Si  tau(  56) = (   0.8719180   0.4191560   0.3868670  )
        57           Si  tau(  57) = (   0.8545580   0.9451550   0.5237390  )
        58           Si  tau(  58) = (   0.4940540   0.8399900   0.3340200  )
        59           Si  tau(  59) = (   0.9928120   0.1049750   0.4116120  )
        60           Si  tau(  60) = (   0.5988080   0.2678960   0.3365800  )
        61           Si  tau(  61) = (   0.5109640   0.3194060   0.9276790  )
        62           Si  tau(  62) = (   0.9988260   0.8318530   0.7598830  )
        63           Si  tau(  63) = (   0.6136560   0.3809430   0.7427860  )
        64           Si  tau(  64) = (   0.0411053   0.4332150   0.5189950  )

     number of k points=     1  Fermi-Dirac smearing, width (Ry)=  0.0100
                       cart. coord. in units 2pi/alat
        k(    1) = (   0.0000000   0.0000000   0.0000000), wk =   2.0000000

     Dense  grid:    92772 G-vectors     FFT dimensions: (  72,  72,  72)

     Estimated max dynamical RAM per process >     148.49 MB

     Estimated total dynamical RAM >     571.30 MB

     Initial potential from superposition of free atoms

     starting charge     255.9608, renormalised to     256.0000
     Starting wfcs are  256 randomized atomic wfcs

     total cpu time spent up to now is        4.5 secs

     Self-consistent Calculation

     iteration #  1     ecut=    30.00 Ry     beta= 0.50
     Davidson diagonalization with overlap
     ethr =  1.00E-02,  avg # of iterations =  3.0

     Threshold (ethr) on eigenvalues was too large:
     Diagonalizing with lowered threshold

     Davidson diagonalization with overlap
     ethr =  5.54E-04,  avg # of iterations =  4.0

     total cpu time spent up to now is        4.7 secs

     total energy              =    -500.47780474 Ry
     estimated scf accuracy    <       1.79135193 Ry

     iteration #  2     ecut=    30.00 Ry     beta= 0.50
     Davidson diagonalization with overlap
     ethr =  7.00E-04,  avg # of iterations =  4.0

     total cpu time spent up to now is        4.8 secs

     total energy              =    -499.75179024 Ry
     estimated scf accuracy    <       9.14579473 Ry

     iteration #  3     ecut=    30.00 Ry     beta= 0.50
     Davidson diagonalization with overlap
     ethr =  7.00E-04,  avg # of iterations =  5.0

     total cpu time spent up to now is        4.9 secs

     total energy              =    -500.56374813 Ry
     estimated scf accuracy    <       3.93785091 Ry

     iteration #  4     ecut=    30.00 Ry     beta= 0.50
     Davidson diagonalization with overlap
     ethr =  7.00E-04,  avg # of iterations =  2.0

     total cpu time spent up to now is        5.0 secs

     total energy              =    -500.83542159 Ry
     estimated scf accuracy    <       0.88462440 Ry

     iteration #  5     ecut=    30.00 Ry     beta= 0.50
     Davidson diagonalization with overlap
     ethr =  3.46E-04,  avg # of iterations =  2.0

     total cpu time spent up to now is        5.0 secs

     total energy              =    -500.88744650 Ry
     estimated scf accuracy    <       0.51331871 Ry

     iteration #  6     ecut=    30.00 Ry     beta= 0.50
     Davidson diagonalization with overlap
     ethr =  2.01E-04,  avg # of iterations =  2.0

     total cpu time spent up to now is        5.1 secs

     total energy              =    -500.93747734 Ry
     estimated scf accuracy    <       0.11369101 Ry

     iteration #  7     ecut=    30.00 Ry     beta= 0.50
     Davidson diagonalization with overlap
     ethr =  4.44E-05,  avg # of iterations =  3.0

     total cpu time spent up to now is        5.2 secs

     total energy              =    -500.94758538 Ry
     estimated scf accuracy    <       0.02811206 Ry

     iteration #  8     ecut=    30.00 Ry     beta= 0.50
     Davidson diagonalization with overlap
     c_bands:  1 eigenvalues not converged
     ethr =  1.10E-05,  avg # of iterations = 20.0

     total cpu time spent up to now is        5.4 secs

     total energy              =    -500.94951097 Ry
     estimated scf accuracy    <       0.04485540 Ry

     iteration #  9     ecut=    30.00 Ry     beta= 0.50
     Davidson diagonalization with overlap
     ethr =  1.10E-05,  avg # of iterations =  2.0

     total cpu time spent up to now is        5.5 secs

     total energy              =    -500.95289365 Ry
     estimated scf accuracy    <       0.00215423 Ry

     iteration # 10     ecut=    30.00 Ry     beta= 0.50
     Davidson diagonalization with overlap
     ethr =  8.41E-07,  avg # of iterations = 13.0

     total cpu time spent up to now is        5.7 secs

     total energy              =    -500.95310734 Ry
     estimated scf accuracy    <       0.00323212 Ry

     iteration # 11     ecut=    30.00 Ry     beta= 0.50
     Davidson diagonalization with overlap
     ethr =  8.41E-07,  avg # of iterations =  3.0

     total cpu time spent up to now is        5.7 secs

     total energy              =    -500.95334181 Ry
     estimated scf accuracy    <       0.00111456 Ry

     iteration # 12     ecut=    30.00 Ry     beta= 0.50
     Davidson diagonalization with overlap
     ethr =  4.35E-07,  avg # of iterations =  2.0

     total cpu time spent up to now is        5.8 secs

     total energy              =    -500.95344840 Ry
     estimated scf accuracy    <       0.00037850 Ry

     iteration # 13     ecut=    30.00 Ry     beta= 0.50
     Davidson diagonalization with overlap
     ethr =  1.48E-07,  avg # of iterations =  2.0

     total cpu time spent up to now is        5.9 secs

     total energy              =    -500.95347691 Ry
     estimated scf accuracy    <       0.00015550 Ry

     iteration # 14     ecut=    30.00 Ry     beta= 0.50
     Davidson diagonalization with overlap
     ethr =  6.07E-08,  avg # of iterations =  2.0

     total cpu time spent up to now is        6.0 secs

     total energy              =    -500.95349138 Ry
     estimated scf accuracy    <       0.00004060 Ry

     iteration # 15     ecut=    30.00 Ry     beta= 0.50
     Davidson diagonalization with overlap
     ethr =  1.59E-08,  avg # of iterations =  2.0

     total cpu time spent up to now is        6.1 secs

     total energy              =    -500.95349406 Ry
     estimated scf accuracy    <       0.00003204 Ry

     iteration # 16     ecut=    30.00 Ry     beta= 0.50
     Davidson diagonalization with overlap
     ethr =  1.25E-08,  avg # of iterations =  2.0

     total cpu time spent up to now is        6.2 secs

     total energy              =    -500.95349670 Ry
     estimated scf accuracy    <       0.00002103 Ry

     iteration # 17     ecut=    30.00 Ry     beta= 0.50
     Davidson diagonalization with overlap
     ethr =  8.22E-09,  avg # of iterations =  1.0

     total cpu time spent up to now is        6.2 secs

     total energy              =    -500.95349802 Ry
     estimated scf accuracy    <       0.00000129 Ry

     iteration # 18     ecut=    30.00 Ry     beta= 0.50
     Davidson diagonalization with overlap
     ethr =  5.03E-10,  avg # of iterations =  4.0

     total cpu time spent up to now is        6.3 secs

     total energy              =    -500.95349821 Ry
     estimated scf accuracy    <       0.00000414 Ry

     iteration # 19     ecut=    30.00 Ry     beta= 0.50
     Davidson diagonalization with overlap
     ethr =  5.03E-10,  avg # of iterations =  3.0

     total cpu time spent up to now is        6.4 secs

     End of self-consistent calculation

          k = 0.0000 0.0000 0.0000 ( 11516 PWs)   bands (ev):

    -5.9349  -5.2762  -5.1302  -4.8132  -4.7288  -4.4912  -4.3013  -4.2513
    -3.9228  -3.8633  -3.8111  -3.6593  -3.6038  -3.4042  -3.3136  -3.1717
    -2.9748  -2.9637  -2.7445  -2.7096  -2.6157  -2.4263  -2.3140  -2.0447
    -1.9412  -1.8439  -1.6003  -1.4205  -1.3312  -1.1320  -0.9784  -0.8995
    -0.8416  -0.8049  -0.6683  -0.5259  -0.4822  -0.4056  -0.2659  -0.0773
    -0.0058   0.0885   0.1935   0.2018   0.3007   0.3743   0.5229   0.5817
     0.6295   0.7721   0.8885   0.9550   1.0572   1.1425   1.3260   1.3527
     1.3831   1.6270   1.6534   1.8347   1.9824   2.0014   2.1378   2.1912
     2.2285   2.3569   2.3791   2.4684   2.5273   2.6518   2.7902   2.8213
     2.9685   3.0904   3.1560   3.1804   3.2722   3.3489   3.4351   3.4918
     3.5534   3.7296   3.8399   3.9125   4.0039   4.0751   4.1924   4.3094
     4.3670   4.4476   4.5078   4.5227   4.5577   4.6563   4.7334   4.7489
     4.8648   4.8972   4.9607   5.0385   5.1583   5.2382   5.3475   5.3706
     5.4083   5.4955   5.5424   5.6057   5.6371   5.6558   5.7639   5.7883
     5.9107   5.9883   6.0254   6.0411   6.1335   6.1717   6.1982   6.2539
     6.3351   6.4183   6.4839   6.5077   6.5558   6.5756   6.6933   6.7082
     6.7651   6.8310   6.8785   7.0314   7.0756   7.1177   7.1585   7.1815
     7.2782   7.3558   7.4009   7.5017   7.5255   7.6671   7.7315   7.8010
     7.8174   7.8870   7.9699   8.0311   8.1270   8.1649   8.2591   8.2920
     8.3074   8.3908

     the Fermi energy is     6.7623 ev

!    total energy              =    -500.95349767 Ry
     estimated scf accuracy    <       0.00000098 Ry
     smearing contrib. (-TS)   =      -0.15016395 Ry
     internal energy E=F+TS    =    -500.80333373 Ry

     The total energy is F=E-TS. E is the sum of the following terms:
     one-electron contribution =     154.26484492 Ry
     hartree contribution      =      37.78120998 Ry
     xc contribution           =    -151.34432931 Ry
     ewald contribution        =    -541.50505931 Ry

     convergence has been achieved in  19 iterations

     Forces acting on atoms (cartesian axes, Ry/au):

     atom    1 type  1   force =    -0.00442142   -0.05160588   -0.00746802
     atom    2 type  1   force =    -0.00067098   -0.08892924   -0.02888142
     atom    3 type  1   force =     0.01008303    0.05318342    0.01781888
     atom    4 type  1   force =    -0.01585646    0.03788791    0.00832724
     atom    5 type  1   force =     0.01553192    0.00730838    0.01871003
     atom    6 type  1   force =    -0.01128777   -0.02423290    0.01062292
     atom    7 type  1   force =    -0.00351023    0.01011012    0.04576164
     atom    8 type  1   force =    -0.00011475   -0.01091307   -0.01673310
     atom    9 type  1   force =     0.03308601    0.03944529   -0.02080306
     atom   10 type  1   force =     0.00947518   -0.02959775    0.00233561
     atom   11 type  1   force =     0.04359587    0.02911547   -0.03373771
     atom   12 type  1   force =    -0.00409032    0.01528423    0.01054499
     atom   13 type  1   force =     0.05545922    0.00178244    0.04535546
     atom   14 type  1   force =    -0.00248231   -0.01820605    0.01808155
     atom   15 type  1   force =     0.00348331    0.02059687   -0.04085160
     atom   16 type  1   force =    -0.05721768    0.02358517   -0.02893141
     atom   17 type  1   force =    -0.01788226    0.00277888   -0.00468784
     atom   18 type  1   force =     0.04041732    0.06906611    0.01629874
     atom   19 type  1   force =    -0.03098863   -0.01889405    0.00284323
     atom   20 type  1   force =     0.01141359   -0.00761805    0.03625053
     atom   21 type  1   force =    -0.06399762    0.02760123    0.00792376
     atom   22 type  1   force =    -0.00887706   -0.01800345    0.02189133
     atom   23 type  1   force =     0.00730320   -0.01173019    0.00343473
     atom   24 type  1   force =     0.01532342    0.05707051   -0.03256675
     atom   25 type  1   force =    -0.02142680   -0.02911834    0.02574672
     atom   26 type  1   force =    -0.00961453   -0.00758681    0.01544864
     atom   27 type  1   force =     0.05009875    0.02337227   -0.06970828
     atom   28 type  1   force =    -0.04637244   -0.05879167    0.05032316
     atom   29 type  1   force =    -0.02882411    0.07994463   -0.01037722
     atom   30 type  1   force =    -0.01261386    0.00302789    0.00599306
     atom   31 type  1   force =     0.00042687   -0.02137657   -0.02491032
     atom   32 type  1   force =     0.03862350   -0.07348456    0.03078329
     atom   33 type  1   force =     0.02780010    0.00373384    0.00581378
     atom   34 type  1   force =    -0.01291094    0.00117617   -0.02107526
     atom   35 type  1   force =     0.03975328   -0.03491616   -0.02109619
     atom   36 type  1   force =     0.02745939   -0.05049889    0.02613871
     atom   37 type  1   force =     0.03237893   -0.03661213   -0.00168725
     atom   38 type  1   force =    -0.05798907    0.01837699   -0.07211624
     atom   39 type  1   force =    -0.04055208    0.03076399   -0.06786343
     atom   40 type  1   force =    -0.00152928   -0.00651185    0.01730462
     atom   41 type  1   force =    -0.01082618   -0.02043269   -0.00260728
     atom   42 type  1   force =    -0.02840085    0.05032427   -0.03058830
     atom   43 type  1   force =     0.01125028    0.00339863    0.10321196
     atom   44 type  1   force =    -0.02542658   -0.03491234    0.00570784
     atom   45 type  1   force =    -0.01125325    0.00556705    0.01210224
     atom   46 type  1   force =     0.00004204    0.03712853    0.01293307
     atom   47 type  1   force =    -0.00916555   -0.05524300    0.06832569
     atom   48 type  1   force =    -0.04042351    0.00126586   -0.02025572
     atom   49 type  1   force =    -0.04449762    0.05630063   -0.03793983
     atom   50 type  1   force =     0.01692048   -0.00748183   -0.02675398
     atom   51 type  1   force =     0.07033661   -0.01073423   -0.02125412
     atom   52 type  1   force =    -0.04413588   -0.03220725    0.02613504
     atom   53 type  1   force =    -0.01690252   -0.06716830   -0.01119327
     atom   54 type  1   force =     0.01273413   -0.00888635    0.00673432
     atom   55 type  1   force =     0.02691949    0.01881927   -0.02430266
     atom   56 type  1   force =    -0.01720407    0.02299699   -0.00618420
     atom   57 type  1   force =     0.06184496    0.04755440    0.04081635
     atom   58 type  1   force =    -0.01058564   -0.00434254    0.00250288
     atom   59 type  1   force =    -0.00198636    0.02027844    0.01558543
     atom   60 type  1   force =    -0.00655889   -0.01652850   -0.01257564
     atom   61 type  1   force =    -0.01975173    0.01572947   -0.04843358
     atom   62 type  1   force =    -0.00109581   -0.02082208    0.01355678
     atom   63 type  1   force =     0.04701119    0.01465367   -0.00691927
     atom   64 type  1   force =     0.03267294    0.02815771    0.00113872

     Total force =     0.441522     Total SCF correction =     0.002032


     Computing stress (Cartesian axis) and pressure

          total   stress  (Ry/bohr**3)                   (kbar)     P=        1.79
  -0.00011413  -0.00001875   0.00000594          -16.79       -2.76        0.87
  -0.00001875   0.00004483  -0.00004003           -2.76        6.60       -5.89
   0.00000594  -0.00004003   0.00010570            0.87       -5.89       15.55

 
     init_run     :      0.92s CPU      4.42s WALL (       1 calls)
     electrons    :      1.82s CPU      1.94s WALL (       1 calls)
     forces       :      0.03s CPU      0.03s WALL (       1 calls)
     stress       :      0.14s CPU      0.14s WALL (       1 calls)

     Called by init_run:
     wfcinit      :      0.42s CPU      3.74s WALL (       1 calls)
                                        3.74s GPU  (       1 calls)
     potinit      :      0.03s CPU      0.13s WALL (       1 calls)
     hinit0       :      0.45s CPU      0.48s WALL (       1 calls)

     Called by electrons:
     c_bands      :      1.20s CPU      1.26s WALL (      20 calls)
     sum_band     :      0.31s CPU      0.36s WALL (      20 calls)
     v_of_rho     :      0.13s CPU      0.23s WALL (      20 calls)
     mix_rho      :      0.14s CPU      0.15s WALL (      20 calls)

     Called by c_bands:
     init_us_2    :      0.05s CPU      0.05s WALL (      41 calls)
     init_us_2:gp :      0.05s CPU      0.05s WALL (      41 calls)
     regterg      :      1.06s CPU      1.10s WALL (      20 calls)

     Called by *egterg:
     rdiaghg      :      0.47s CPU      1.15s WALL (     100 calls)
                                        1.13s GPU  (     100 calls)
     h_psi        :      0.84s CPU      3.51s WALL (     102 calls)
                                        3.50s GPU  (     102 calls)
     g_psi        :      0.00s CPU      0.00s WALL (      81 calls)
                                        0.00s GPU  (      81 calls)

     Called by h_psi:
     h_psi:calbec :      0.40s CPU      3.01s WALL (     102 calls)
                                        3.00s GPU  (     102 calls)
     vloc_psi     :      0.38s CPU      0.44s WALL (     102 calls)
                                        0.43s GPU  (     102 calls)
     add_vuspsi   :      0.04s CPU      0.06s WALL (     102 calls)
                                        0.06s GPU  (     102 calls)

     General routines
     calbec       :      0.41s CPU      3.01s WALL (     107 calls)
     fft          :      0.54s CPU      0.67s WALL (     167 calls)
                                        0.12s GPU  (     106 calls)
     ffts         :      0.03s CPU      0.03s WALL (      20 calls)
     fftw         :      0.46s CPU      0.59s WALL (    2128 calls)
                                        0.52s GPU  (    2128 calls)
 
     Parallel routines
 
     PWSCF        :      2.94s CPU      6.61s WALL

 
   This run was terminated on:  12: 5:23  11May2023            

=------------------------------------------------------------------------------=
   JOB DONE.
=------------------------------------------------------------------------------=
