An instance of this daemon is already running

     Program PWSCF v.7.1 starts on 11May2023 at 12: 3:23 

     This program is part of the open-source Quantum ESPRESSO suite
     for quantum simulation of materials; please cite
         "P. Giannozzi et al., J. Phys.:Condens. Matter 21 395502 (2009);
         "P. Giannozzi et al., J. Phys.:Condens. Matter 29 465901 (2017);
         "P. Giannozzi et al., J. Chem. Phys. 152 154105 (2020);
          URL http://www.quantum-espresso.org", 
     in publications or presentations arising from this work. More details at
     http://www.quantum-espresso.org/quote

     Parallel version (MPI & OpenMP), running on       4 processor cores
     Number of MPI processes:                 4
     Threads/MPI process:                     1

     MPI processes distributed on     1 nodes
     701386 MiB available memory on the printing compute node when the environment starts
 
     Reading input from pw-si-1.in
Warning: card &CELL ignored
Warning: card / ignored

     Current dimensions of program PWSCF are:
     Max number of different atomic species (ntypx) = 10
     Max number of k-points (npk) =  40000
     Max angular momentum in pseudopotentials (lmaxx) =  4

     IMPORTANT: XC functional enforced from input :
     Exchange-correlation= PBE
                           (   1   4   3   4   0   0   0)
     Any further DFT definition will be discarded
     Please, verify this is what you really want


     gamma-point specific algorithms are used
 
     K-points division:     npool     =       2
     R & G space division:  proc/nbgrp/npool/nimage =       2
     Subspace diagonalization in iterative solution of the eigenvalue problem:
     a serial algorithm will be used

     Message from routine divide_et_impera:
     suboptimal parallelization: some nodes have no k-points
 
     Parallelization info
     --------------------
     sticks:   dense  smooth     PW     G-vecs:    dense   smooth      PW
     Min        1991    1991    524                94089    94089   12765
     Max        1994    1994    525                94094    94094   12768
     Sum        3985    3985   1049               188183   188183   25533
 
     Using Slab Decomposition
 


     bravais-lattice index     =            0
     lattice parameter (alat)  =      20.3819  a.u.
     unit-cell volume          =    8467.0364 (a.u.)^3
     number of atoms/cell      =           64
     number of atomic types    =            1
     number of electrons       =       256.00
     number of Kohn-Sham states=          154
     kinetic-energy cutoff     =      30.0000  Ry
     charge density cutoff     =     120.0000  Ry
     scf convergence threshold =      1.0E-06
     mixing beta               =       0.5000
     number of iterations used =            8  plain     mixing
     Exchange-correlation= PBE
                           (   1   4   3   4   0   0   0)

     GPU acceleration is ACTIVE.
     GPU-aware MPI enabled

     Message from routine print_cuda_info:
     High GPU oversubscription detected. Are you sure this is what you want?

     celldm(1)=  20.381860  celldm(2)=   0.000000  celldm(3)=   0.000000
     celldm(4)=   0.000000  celldm(5)=   0.000000  celldm(6)=   0.000000

     crystal axes: (cart. coord. in units of alat)
               a(1) = (   1.000000   0.000000   0.000000 )  
               a(2) = (   0.000000   1.000000   0.000000 )  
               a(3) = (   0.000000   0.000000   1.000000 )  

     reciprocal axes: (cart. coord. in units 2 pi/alat)
               b(1) = (  1.000000  0.000000  0.000000 )  
               b(2) = (  0.000000  1.000000  0.000000 )  
               b(3) = (  0.000000  0.000000  1.000000 )  


     PseudoPot. # 1 for Si read from file:
     /home/ppiaggi/pseudos/Si_ONCV_PBE_sr.upf
     MD5 check sum: 8553c464762ac42b85b1eed164b4d029
     Pseudo is Norm-conserving, Zval =  4.0
     Generated using ONCVPSP code by D. R. Hamann
     Using radial grid of 1510 points,  4 beta functions with: 
                l(1) =   0
                l(2) =   0
                l(3) =   1
                l(4) =   1

     atomic species   valence    mass     pseudopotential
        Si             4.00    28.08500     Si( 1.00)

     No symmetry found



   Cartesian axes

     site n.     atom                  positions (alat units)
         1           Si  tau(   1) = (   0.3469420   0.3569970   0.4590480  )
         2           Si  tau(   2) = (   0.5137370   0.6975190   0.5982730  )
         3           Si  tau(   3) = (   0.9439500   0.2272320   0.7263900  )
         4           Si  tau(   4) = (   0.2522960   0.0790114   0.9247630  )
         5           Si  tau(   5) = (   0.0823923   0.9532270   0.9407610  )
         6           Si  tau(   6) = (   0.7256300   0.7769990   0.5862610  )
         7           Si  tau(   7) = (   0.2433030   0.3454610   0.2360020  )
         8           Si  tau(   8) = (   0.0391788   0.7325090   0.5100640  )
         9           Si  tau(   9) = (   0.5111050   0.5487110   0.3300880  )
        10           Si  tau(  10) = (   0.8426390   0.6937040   0.3577880  )
        11           Si  tau(  11) = (   0.9330530   0.0499867   0.0695799  )
        12           Si  tau(  12) = (   0.3718710   0.8680430   0.6796260  )
        13           Si  tau(  13) = (   0.7924670   0.0942063   0.7549300  )
        14           Si  tau(  14) = (   0.5627810   0.7668110   0.8093380  )
        15           Si  tau(  15) = (   0.1485330   0.6924090   0.9292470  )
        16           Si  tau(  16) = (   0.6294050   0.2230270   0.1536070  )
        17           Si  tau(  17) = (   0.3067520   0.2927250   0.6631890  )
        18           Si  tau(  18) = (   0.4525650   0.0240145   0.3441830  )
        19           Si  tau(  19) = (   0.4157020   0.0698747   0.7883260  )
        20           Si  tau(  20) = (   0.3986340   0.3354950   0.0504335  )
        21           Si  tau(  21) = (   0.1021120   0.4836910   0.8787000  )
        22           Si  tau(  22) = (   0.2326100   0.5153090   0.6992240  )
        23           Si  tau(  23) = (   0.1070400   0.2640020   0.5519320  )
        24           Si  tau(  24) = (   0.6714520   0.7371380   0.0288525  )
        25           Si  tau(  25) = (   0.8599760   0.5991580   0.7329830  )
        26           Si  tau(  26) = (   0.9908240   0.2994960   0.2201300  )
        27           Si  tau(  27) = (   0.4524640   0.5826700   0.8550160  )
        28           Si  tau(  28) = (   0.8514600   0.1294950   0.2522740  )
        29           Si  tau(  29) = (   0.5396910   0.1621160   0.6021750  )
        30           Si  tau(  30) = (   0.1776170   0.5489680   0.2345360  )
        31           Si  tau(  31) = (   0.8385680   0.2212250   0.9527570  )
        32           Si  tau(  32) = (   0.3362000   0.7953910   0.3857080  )
        33           Si  tau(  33) = (   0.5884320   0.1334150   0.8949760  )
        34           Si  tau(  34) = (   0.9588860   0.9109540   0.4093770  )
        35           Si  tau(  35) = (   0.2380860   0.1615690   0.0998206  )
        36           Si  tau(  36) = (   0.7016470   0.3139310   0.4795850  )
        37           Si  tau(  37) = (   0.7735570   0.5286210   0.0667772  )
        38           Si  tau(  38) = (   0.3029300   0.7821120   0.0535224  )
        39           Si  tau(  39) = (   0.6775700   0.9442660   0.3732750  )
        40           Si  tau(  40) = (   0.5502690   0.4996390   0.1257140  )
        41           Si  tau(  41) = (   0.9270970   0.5000220   0.1999450  )
        42           Si  tau(  42) = (   0.6855230   0.5576090   0.4602520  )
        43           Si  tau(  43) = (   0.4394530   0.9134600   0.1744570  )
        44           Si  tau(  44) = (   0.0722196   0.9093010   0.1668700  )
        45           Si  tau(  45) = (   0.1896350   0.7388920   0.7027290  )
        46           Si  tau(  46) = (   0.8648810   0.4265080   0.8819540  )
        47           Si  tau(  47) = (   0.3312870   0.6028480   0.1035930  )
        48           Si  tau(  48) = (   0.4818100   0.4824690   0.6323690  )
        49           Si  tau(  49) = (   0.0242748   0.6998620   0.2312900  )
        50           Si  tau(  50) = (   0.7341200   0.1023020   0.5153620  )
        51           Si  tau(  51) = (   0.2965560   0.4235680   0.8884460  )
        52           Si  tau(  52) = (   0.8008560   0.8632240   0.1144890  )
        53           Si  tau(  53) = (   0.0819053   0.0447146   0.6523830  )
        54           Si  tau(  54) = (   0.6200090   0.0016936   0.0543831  )
        55           Si  tau(  55) = (   0.2417170   0.0805281   0.4038750  )
        56           Si  tau(  56) = (   0.8710000   0.4594440   0.4174630  )
        57           Si  tau(  57) = (   0.8662950   0.9172230   0.6631360  )
        58           Si  tau(  58) = (   0.5524010   0.7610390   0.3100440  )
        59           Si  tau(  59) = (   0.0219949   0.1587790   0.3845940  )
        60           Si  tau(  60) = (   0.5184420   0.2604850   0.3621910  )
        61           Si  tau(  61) = (   0.5694630   0.3470470   0.8573820  )
        62           Si  tau(  62) = (   0.9947250   0.8365610   0.8066140  )
        63           Si  tau(  63) = (   0.7014780   0.4483160   0.6840940  )
        64           Si  tau(  64) = (   0.0807573   0.4818930   0.5407490  )

     number of k points=     1  Fermi-Dirac smearing, width (Ry)=  0.0100
                       cart. coord. in units 2pi/alat
        k(    1) = (   0.0000000   0.0000000   0.0000000), wk =   2.0000000

     Dense  grid:    94092 G-vectors     FFT dimensions: (  72,  72,  72)

     Estimated max dynamical RAM per process >     150.29 MB

     Estimated total dynamical RAM >     578.17 MB

     Initial potential from superposition of free atoms

     starting charge     255.9608, renormalised to     256.0000
     Starting wfcs are  256 randomized atomic wfcs

     total cpu time spent up to now is        4.5 secs

     Self-consistent Calculation

     iteration #  1     ecut=    30.00 Ry     beta= 0.50
     Davidson diagonalization with overlap
     ethr =  1.00E-02,  avg # of iterations =  3.0

     Threshold (ethr) on eigenvalues was too large:
     Diagonalizing with lowered threshold

     Davidson diagonalization with overlap
     ethr =  5.62E-04,  avg # of iterations =  4.0

     total cpu time spent up to now is        4.7 secs

     total energy              =    -500.37331431 Ry
     estimated scf accuracy    <       1.82619402 Ry

     iteration #  2     ecut=    30.00 Ry     beta= 0.50
     Davidson diagonalization with overlap
     ethr =  7.13E-04,  avg # of iterations =  5.0

     total cpu time spent up to now is        4.9 secs

     total energy              =    -499.90752809 Ry
     estimated scf accuracy    <       5.88097429 Ry

     iteration #  3     ecut=    30.00 Ry     beta= 0.50
     Davidson diagonalization with overlap
     ethr =  7.13E-04,  avg # of iterations =  4.0

     total cpu time spent up to now is        4.9 secs

     total energy              =    -500.45651710 Ry
     estimated scf accuracy    <       3.42090752 Ry

     iteration #  4     ecut=    30.00 Ry     beta= 0.50
     Davidson diagonalization with overlap
     ethr =  7.13E-04,  avg # of iterations =  2.0

     total cpu time spent up to now is        5.0 secs

     total energy              =    -500.70354474 Ry
     estimated scf accuracy    <       1.12761789 Ry

     iteration #  5     ecut=    30.00 Ry     beta= 0.50
     Davidson diagonalization with overlap
     ethr =  4.40E-04,  avg # of iterations =  2.0

     total cpu time spent up to now is        5.1 secs

     total energy              =    -500.77361754 Ry
     estimated scf accuracy    <       0.37683563 Ry

     iteration #  6     ecut=    30.00 Ry     beta= 0.50
     Davidson diagonalization with overlap
     ethr =  1.47E-04,  avg # of iterations =  2.0

     total cpu time spent up to now is        5.2 secs

     total energy              =    -500.81511452 Ry
     estimated scf accuracy    <       0.22200724 Ry

     iteration #  7     ecut=    30.00 Ry     beta= 0.50
     Davidson diagonalization with overlap
     ethr =  8.67E-05,  avg # of iterations =  1.0

     total cpu time spent up to now is        5.3 secs

     total energy              =    -500.83074865 Ry
     estimated scf accuracy    <       0.02271761 Ry

     iteration #  8     ecut=    30.00 Ry     beta= 0.50
     Davidson diagonalization with overlap
     ethr =  8.87E-06,  avg # of iterations = 16.0

     total cpu time spent up to now is        5.4 secs

     total energy              =    -500.83262416 Ry
     estimated scf accuracy    <       0.03775974 Ry

     iteration #  9     ecut=    30.00 Ry     beta= 0.50
     Davidson diagonalization with overlap
     ethr =  8.87E-06,  avg # of iterations =  2.0

     total cpu time spent up to now is        5.5 secs

     total energy              =    -500.83567292 Ry
     estimated scf accuracy    <       0.00529903 Ry

     iteration # 10     ecut=    30.00 Ry     beta= 0.50
     Davidson diagonalization with overlap
     ethr =  2.07E-06,  avg # of iterations = 10.0

     total cpu time spent up to now is        5.6 secs

     total energy              =    -500.83613998 Ry
     estimated scf accuracy    <       0.00268323 Ry

     iteration # 11     ecut=    30.00 Ry     beta= 0.50
     Davidson diagonalization with overlap
     ethr =  1.05E-06,  avg # of iterations =  2.0

     total cpu time spent up to now is        5.7 secs

     total energy              =    -500.83628747 Ry
     estimated scf accuracy    <       0.00160798 Ry

     iteration # 12     ecut=    30.00 Ry     beta= 0.50
     Davidson diagonalization with overlap
     ethr =  6.28E-07,  avg # of iterations =  2.0

     total cpu time spent up to now is        5.8 secs

     total energy              =    -500.83644692 Ry
     estimated scf accuracy    <       0.00041061 Ry

     iteration # 13     ecut=    30.00 Ry     beta= 0.50
     Davidson diagonalization with overlap
     ethr =  1.60E-07,  avg # of iterations =  2.0

     total cpu time spent up to now is        5.9 secs

     total energy              =    -500.83647469 Ry
     estimated scf accuracy    <       0.00021746 Ry

     iteration # 14     ecut=    30.00 Ry     beta= 0.50
     Davidson diagonalization with overlap
     ethr =  8.49E-08,  avg # of iterations =  2.0

     total cpu time spent up to now is        6.0 secs

     total energy              =    -500.83649618 Ry
     estimated scf accuracy    <       0.00004707 Ry

     iteration # 15     ecut=    30.00 Ry     beta= 0.50
     Davidson diagonalization with overlap
     ethr =  1.84E-08,  avg # of iterations =  2.0

     total cpu time spent up to now is        6.1 secs

     total energy              =    -500.83649715 Ry
     estimated scf accuracy    <       0.00004563 Ry

     iteration # 16     ecut=    30.00 Ry     beta= 0.50
     Davidson diagonalization with overlap
     ethr =  1.78E-08,  avg # of iterations =  2.0

     total cpu time spent up to now is        6.1 secs

     total energy              =    -500.83650175 Ry
     estimated scf accuracy    <       0.00002096 Ry

     iteration # 17     ecut=    30.00 Ry     beta= 0.50
     Davidson diagonalization with overlap
     ethr =  8.19E-09,  avg # of iterations =  2.0

     total cpu time spent up to now is        6.2 secs

     total energy              =    -500.83650290 Ry
     estimated scf accuracy    <       0.00000247 Ry

     iteration # 18     ecut=    30.00 Ry     beta= 0.50
     Davidson diagonalization with overlap
     ethr =  9.64E-10,  avg # of iterations =  5.0

     total cpu time spent up to now is        6.3 secs

     total energy              =    -500.83650308 Ry
     estimated scf accuracy    <       0.00000648 Ry

     iteration # 19     ecut=    30.00 Ry     beta= 0.50
     Davidson diagonalization with overlap
     ethr =  9.64E-10,  avg # of iterations =  3.0

     total cpu time spent up to now is        6.4 secs

     End of self-consistent calculation

          k = 0.0000 0.0000 0.0000 ( 11792 PWs)   bands (ev):

    -5.9488  -5.2890  -5.1105  -4.9117  -4.7829  -4.6856  -4.4408  -4.2744
    -4.1496  -3.9578  -3.9333  -3.8223  -3.6734  -3.5985  -3.3995  -3.3518
    -3.1487  -3.0989  -2.9384  -2.8792  -2.6983  -2.4150  -2.3950  -2.2479
    -2.0383  -1.8996  -1.8332  -1.5164  -1.3772  -1.2631  -1.1279  -0.9650
    -0.8587  -0.8270  -0.7016  -0.6782  -0.5361  -0.4876  -0.3548  -0.3459
    -0.2057  -0.1131  -0.0833   0.0855   0.2209   0.3149   0.4257   0.5188
     0.5762   0.6613   0.7021   0.9149   0.9734   1.1172   1.1967   1.2840
     1.3734   1.4590   1.5758   1.5942   1.6769   1.8039   1.8748   2.0923
     2.1646   2.2110   2.3093   2.3196   2.3563   2.5545   2.5731   2.7250
     2.8360   2.9023   2.9790   3.0355   3.0584   3.2046   3.2352   3.2837
     3.4571   3.6287   3.6943   3.7401   3.7936   3.9386   3.9922   4.1232
     4.2159   4.3175   4.3607   4.3716   4.4935   4.5316   4.6519   4.6623
     4.7853   4.8238   4.8630   4.9263   4.9586   4.9899   5.0785   5.1061
     5.1893   5.2837   5.3409   5.4522   5.4676   5.5512   5.6636   5.7648
     5.8075   5.8275   5.8583   5.9244   5.9732   6.0090   6.0698   6.1413
     6.1969   6.2474   6.3355   6.4095   6.4480   6.5072   6.5407   6.6032
     6.6899   6.7520   6.7977   6.8691   6.8827   6.9312   7.0045   7.0800
     7.1427   7.2006   7.2701   7.3067   7.4005   7.4133   7.5281   7.5662
     7.6486   7.6911   7.7771   7.8363   7.8822   7.9523   7.9835   8.0579
     8.1252   8.1518

     the Fermi energy is     6.6465 ev

!    total energy              =    -500.83650315 Ry
     estimated scf accuracy    <       0.00000061 Ry
     smearing contrib. (-TS)   =      -0.15438049 Ry
     internal energy E=F+TS    =    -500.68212267 Ry

     The total energy is F=E-TS. E is the sum of the following terms:
     one-electron contribution =     154.35101888 Ry
     hartree contribution      =      36.33251159 Ry
     xc contribution           =    -151.07334207 Ry
     ewald contribution        =    -540.29231106 Ry

     convergence has been achieved in  19 iterations

     Forces acting on atoms (cartesian axes, Ry/au):

     atom    1 type  1   force =     0.00364573    0.01117994   -0.03853646
     atom    2 type  1   force =    -0.00667052    0.03076188   -0.01965111
     atom    3 type  1   force =     0.05633312    0.04209540   -0.00024793
     atom    4 type  1   force =     0.00693072   -0.03858287   -0.09650095
     atom    5 type  1   force =     0.03846672    0.03281403    0.05970173
     atom    6 type  1   force =    -0.01534340   -0.04621344   -0.02224151
     atom    7 type  1   force =    -0.01755682   -0.03641568    0.02843174
     atom    8 type  1   force =    -0.00682765   -0.03299275    0.01244541
     atom    9 type  1   force =    -0.01718348   -0.00212365    0.01846115
     atom   10 type  1   force =     0.00118934    0.01565125    0.01650715
     atom   11 type  1   force =    -0.03497380    0.01711127   -0.02001507
     atom   12 type  1   force =     0.00306200   -0.00914506    0.01023774
     atom   13 type  1   force =    -0.08344868   -0.01617671    0.00852841
     atom   14 type  1   force =     0.01364316    0.00473294    0.01620520
     atom   15 type  1   force =    -0.01794209    0.01395461   -0.02467952
     atom   16 type  1   force =     0.00856994   -0.02899615    0.00611023
     atom   17 type  1   force =     0.00078515   -0.01843875    0.03000271
     atom   18 type  1   force =    -0.00035652    0.04861722    0.06537620
     atom   19 type  1   force =    -0.01753613   -0.02010732   -0.06574294
     atom   20 type  1   force =     0.04906548   -0.02641407    0.04467435
     atom   21 type  1   force =    -0.09789062    0.01122321    0.01655226
     atom   22 type  1   force =     0.01302611    0.04321643   -0.02526662
     atom   23 type  1   force =     0.00602181   -0.01517215    0.03346339
     atom   24 type  1   force =    -0.03860926   -0.07683713   -0.04481198
     atom   25 type  1   force =     0.00584463    0.01597916   -0.02042538
     atom   26 type  1   force =     0.03935290   -0.01253468   -0.02096194
     atom   27 type  1   force =    -0.00823897   -0.02265601   -0.00343840
     atom   28 type  1   force =    -0.06457599    0.01235414    0.00101117
     atom   29 type  1   force =    -0.02784213    0.01120594    0.00412532
     atom   30 type  1   force =    -0.02570325    0.00400365    0.03012341
     atom   31 type  1   force =    -0.00940207   -0.01502580   -0.00261449
     atom   32 type  1   force =     0.01097804    0.01655761    0.01068052
     atom   33 type  1   force =     0.05329752    0.00572950   -0.02964815
     atom   34 type  1   force =    -0.02016104    0.01692027    0.01028044
     atom   35 type  1   force =    -0.00596756    0.04628558    0.12475148
     atom   36 type  1   force =     0.00303885    0.01006543    0.00824689
     atom   37 type  1   force =    -0.06850626    0.01856804   -0.07061838
     atom   38 type  1   force =    -0.02400147    0.18381789   -0.03944164
     atom   39 type  1   force =     0.01465977   -0.02611523   -0.01727899
     atom   40 type  1   force =    -0.00826055   -0.01639157   -0.02939152
     atom   41 type  1   force =     0.02712754    0.03037529    0.03880095
     atom   42 type  1   force =    -0.01930089    0.04682288    0.02405273
     atom   43 type  1   force =     0.02173725   -0.03884871   -0.06408871
     atom   44 type  1   force =     0.03889633   -0.03475206    0.02792605
     atom   45 type  1   force =    -0.00177182    0.00899002    0.01184200
     atom   46 type  1   force =     0.01665783    0.01442520    0.00789905
     atom   47 type  1   force =     0.06580353   -0.16699300    0.00281267
     atom   48 type  1   force =    -0.01102400   -0.00200438    0.00910938
     atom   49 type  1   force =    -0.00353076    0.01159032    0.00411535
     atom   50 type  1   force =     0.02316154   -0.02641362    0.03644797
     atom   51 type  1   force =     0.04384384   -0.00990331    0.00022586
     atom   52 type  1   force =     0.03897777    0.07715275    0.04350292
     atom   53 type  1   force =    -0.01949050    0.00173183   -0.00289302
     atom   54 type  1   force =     0.00122863    0.00472742    0.06157607
     atom   55 type  1   force =    -0.01693654    0.02307094   -0.00651156
     atom   56 type  1   force =     0.04813022   -0.02213486   -0.00802333
     atom   57 type  1   force =     0.00999808    0.03843474   -0.06434603
     atom   58 type  1   force =     0.00810571    0.01921591   -0.01909896
     atom   59 type  1   force =     0.02759643   -0.02900380    0.01385211
     atom   60 type  1   force =     0.02736267   -0.02178689    0.00790862
     atom   61 type  1   force =     0.01103998    0.03975196   -0.02424487
     atom   62 type  1   force =     0.01040564   -0.10301547   -0.03164894
     atom   63 type  1   force =    -0.02176470   -0.03539747   -0.01065428
     atom   64 type  1   force =    -0.03716652    0.02145789   -0.02296595

     Total force =     0.516701     Total SCF correction =     0.001488


     Computing stress (Cartesian axis) and pressure

          total   stress  (Ry/bohr**3)                   (kbar)     P=       -0.41
  -0.00009022   0.00002837   0.00009382          -13.27        4.17       13.80
   0.00002837   0.00014133   0.00000886            4.17       20.79        1.30
   0.00009382   0.00000886  -0.00005955           13.80        1.30       -8.76

 
     init_run     :      0.95s CPU      4.49s WALL (       1 calls)
     electrons    :      1.72s CPU      1.85s WALL (       1 calls)
     forces       :      0.03s CPU      0.03s WALL (       1 calls)
     stress       :      0.14s CPU      0.15s WALL (       1 calls)

     Called by init_run:
     wfcinit      :      0.44s CPU      3.80s WALL (       1 calls)
                                        3.80s GPU  (       1 calls)
     potinit      :      0.04s CPU      0.14s WALL (       1 calls)
     hinit0       :      0.45s CPU      0.48s WALL (       1 calls)

     Called by electrons:
     c_bands      :      1.11s CPU      1.17s WALL (      20 calls)
     sum_band     :      0.31s CPU      0.35s WALL (      20 calls)
     v_of_rho     :      0.13s CPU      0.24s WALL (      20 calls)
     mix_rho      :      0.14s CPU      0.16s WALL (      20 calls)

     Called by c_bands:
     init_us_2    :      0.05s CPU      0.05s WALL (      41 calls)
     init_us_2:gp :      0.05s CPU      0.05s WALL (      41 calls)
     regterg      :      0.97s CPU      1.03s WALL (      20 calls)

     Called by *egterg:
     rdiaghg      :      0.41s CPU      1.12s WALL (      92 calls)
                                        1.11s GPU  (      92 calls)
     h_psi        :      0.83s CPU      3.53s WALL (      94 calls)
                                        3.52s GPU  (      94 calls)
     g_psi        :      0.00s CPU      0.00s WALL (      73 calls)
                                        0.00s GPU  (      73 calls)

     Called by h_psi:
     h_psi:calbec :      0.42s CPU      3.04s WALL (      94 calls)
                                        3.03s GPU  (      94 calls)
     vloc_psi     :      0.36s CPU      0.43s WALL (      94 calls)
                                        0.43s GPU  (      94 calls)
     add_vuspsi   :      0.04s CPU      0.05s WALL (      94 calls)
                                        0.05s GPU  (      94 calls)

     General routines
     calbec       :      0.42s CPU      3.04s WALL (      99 calls)
     fft          :      0.55s CPU      0.68s WALL (     167 calls)
                                        0.13s GPU  (     106 calls)
     ffts         :      0.03s CPU      0.04s WALL (      20 calls)
     fftw         :      0.45s CPU      0.58s WALL (    2104 calls)
                                        0.52s GPU  (    2104 calls)
 
     Parallel routines
 
     PWSCF        :      2.88s CPU      6.59s WALL

 
   This run was terminated on:  12: 3:30  11May2023            

=------------------------------------------------------------------------------=
   JOB DONE.
=------------------------------------------------------------------------------=
