An instance of this daemon is already running

     Program PWSCF v.7.1 starts on 11May2023 at 12: 9:13 

     This program is part of the open-source Quantum ESPRESSO suite
     for quantum simulation of materials; please cite
         "P. Giannozzi et al., J. Phys.:Condens. Matter 21 395502 (2009);
         "P. Giannozzi et al., J. Phys.:Condens. Matter 29 465901 (2017);
         "P. Giannozzi et al., J. Chem. Phys. 152 154105 (2020);
          URL http://www.quantum-espresso.org", 
     in publications or presentations arising from this work. More details at
     http://www.quantum-espresso.org/quote

     Parallel version (MPI & OpenMP), running on       4 processor cores
     Number of MPI processes:                 4
     Threads/MPI process:                     1

     MPI processes distributed on     1 nodes
     701377 MiB available memory on the printing compute node when the environment starts
 
     Reading input from pw-si-41.in
Warning: card &CELL ignored
Warning: card / ignored

     Current dimensions of program PWSCF are:
     Max number of different atomic species (ntypx) = 10
     Max number of k-points (npk) =  40000
     Max angular momentum in pseudopotentials (lmaxx) =  4

     IMPORTANT: XC functional enforced from input :
     Exchange-correlation= PBE
                           (   1   4   3   4   0   0   0)
     Any further DFT definition will be discarded
     Please, verify this is what you really want


     gamma-point specific algorithms are used
 
     K-points division:     npool     =       2
     R & G space division:  proc/nbgrp/npool/nimage =       2
     Subspace diagonalization in iterative solution of the eigenvalue problem:
     a serial algorithm will be used

     Message from routine divide_et_impera:
     suboptimal parallelization: some nodes have no k-points
 
     Parallelization info
     --------------------
     sticks:   dense  smooth     PW     G-vecs:    dense   smooth      PW
     Min        1945    1945    516                91383    91383   12416
     Max        1948    1948    517                91388    91388   12421
     Sum        3893    3893   1033               182771   182771   24837
 
     Using Slab Decomposition
 


     bravais-lattice index     =            0
     lattice parameter (alat)  =      20.1901  a.u.
     unit-cell volume          =    8230.3350 (a.u.)^3
     number of atoms/cell      =           64
     number of atomic types    =            1
     number of electrons       =       256.00
     number of Kohn-Sham states=          154
     kinetic-energy cutoff     =      30.0000  Ry
     charge density cutoff     =     120.0000  Ry
     scf convergence threshold =      1.0E-06
     mixing beta               =       0.5000
     number of iterations used =            8  plain     mixing
     Exchange-correlation= PBE
                           (   1   4   3   4   0   0   0)

     GPU acceleration is ACTIVE.
     GPU-aware MPI enabled

     Message from routine print_cuda_info:
     High GPU oversubscription detected. Are you sure this is what you want?

     celldm(1)=  20.190133  celldm(2)=   0.000000  celldm(3)=   0.000000
     celldm(4)=   0.000000  celldm(5)=   0.000000  celldm(6)=   0.000000

     crystal axes: (cart. coord. in units of alat)
               a(1) = (   1.000000   0.000000   0.000000 )  
               a(2) = (   0.000000   1.000000   0.000000 )  
               a(3) = (   0.000000   0.000000   1.000000 )  

     reciprocal axes: (cart. coord. in units 2 pi/alat)
               b(1) = (  1.000000  0.000000  0.000000 )  
               b(2) = (  0.000000  1.000000  0.000000 )  
               b(3) = (  0.000000  0.000000  1.000000 )  


     PseudoPot. # 1 for Si read from file:
     /home/ppiaggi/pseudos/Si_ONCV_PBE_sr.upf
     MD5 check sum: 8553c464762ac42b85b1eed164b4d029
     Pseudo is Norm-conserving, Zval =  4.0
     Generated using ONCVPSP code by D. R. Hamann
     Using radial grid of 1510 points,  4 beta functions with: 
                l(1) =   0
                l(2) =   0
                l(3) =   1
                l(4) =   1

     atomic species   valence    mass     pseudopotential
        Si             4.00    28.08500     Si( 1.00)

     No symmetry found



   Cartesian axes

     site n.     atom                  positions (alat units)
         1           Si  tau(   1) = (   0.3551400   0.3191700   0.5786420  )
         2           Si  tau(   2) = (   0.6999940   0.6842250   0.5959210  )
         3           Si  tau(   3) = (   0.1722420   0.2806270   0.8394490  )
         4           Si  tau(   4) = (   0.3215500   0.0458655   0.0215545  )
         5           Si  tau(   5) = (   0.9798140   0.8547820   0.1190390  )
         6           Si  tau(   6) = (   0.8769020   0.5218610   0.6266870  )
         7           Si  tau(   7) = (   0.1581240   0.2609250   0.2321150  )
         8           Si  tau(   8) = (   0.9440050   0.6234350   0.2055810  )
         9           Si  tau(   9) = (   0.3152390   0.5358390   0.3972890  )
        10           Si  tau(  10) = (   0.7820430   0.6117670   0.3766680  )
        11           Si  tau(  11) = (   0.0483466   0.1383160   0.0206391  )
        12           Si  tau(  12) = (   0.4140790   0.8970970   0.5523420  )
        13           Si  tau(  13) = (   0.8015600   0.0877856   0.7836290  )
        14           Si  tau(  14) = (   0.6018370   0.7567220   0.7791450  )
        15           Si  tau(  15) = (   0.0745175   0.8185280   0.8086810  )
        16           Si  tau(  16) = (   0.7091740   0.2719360   0.0152935  )
        17           Si  tau(  17) = (   0.5590000   0.1953800   0.6102890  )
        18           Si  tau(  18) = (   0.3719570   0.1305490   0.4439790  )
        19           Si  tau(  19) = (   0.4027480   0.9868360   0.7620710  )
        20           Si  tau(  20) = (   0.6145270   0.2989530   0.2365750  )
        21           Si  tau(  21) = (   0.2195570   0.4937390   0.9581730  )
        22           Si  tau(  22) = (   0.2035580   0.7872080   0.4973780  )
        23           Si  tau(  23) = (   0.2232670   0.4992240   0.7027670  )
        24           Si  tau(  24) = (   0.6608420   0.8113300   0.9891270  )
        25           Si  tau(  25) = (   0.6853080   0.4515420   0.7078000  )
        26           Si  tau(  26) = (   0.8791830   0.2558050   0.1358120  )
        27           Si  tau(  27) = (   0.4300480   0.8292750   0.9242270  )
        28           Si  tau(  28) = (   0.8195990   0.0887259   0.3599240  )
        29           Si  tau(  29) = (   0.6715140   0.9696870   0.6552930  )
        30           Si  tau(  30) = (   0.2051810   0.5037620   0.2301680  )
        31           Si  tau(  31) = (   0.9088730   0.2607970   0.8687530  )
        32           Si  tau(  32) = (   0.2317070   0.9425850   0.1921340  )
        33           Si  tau(  33) = (   0.5529750   0.1080640   0.9963950  )
        34           Si  tau(  34) = (   0.6850230   0.8251340   0.2195700  )
        35           Si  tau(  35) = (   0.3741100   0.3025400   0.1872860  )
        36           Si  tau(  36) = (   0.7385670   0.3002240   0.5210120  )
        37           Si  tau(  37) = (   0.6512690   0.5722690   0.0114123  )
        38           Si  tau(  38) = (   0.2416230   0.8061100   0.7111420  )
        39           Si  tau(  39) = (   0.6260360   0.9059330   0.4401930  )
        40           Si  tau(  40) = (   0.5774060   0.5359880   0.2136400  )
        41           Si  tau(  41) = (   0.0338284   0.6335860   0.9369230  )
        42           Si  tau(  42) = (   0.5455700   0.6010270   0.4223680  )
        43           Si  tau(  43) = (   0.3376240   0.6655500   0.1315660  )
        44           Si  tau(  44) = (   0.1814000   0.0123926   0.5009490  )
        45           Si  tau(  45) = (   0.0701364   0.7937350   0.3315170  )
        46           Si  tau(  46) = (   0.8701800   0.4907860   0.9920310  )
        47           Si  tau(  47) = (   0.4467560   0.4277140   0.0203993  )
        48           Si  tau(  48) = (   0.3920650   0.6522150   0.8194710  )
        49           Si  tau(  49) = (   0.0637549   0.0755890   0.2877700  )
        50           Si  tau(  50) = (   0.9402030   0.2449380   0.4882760  )
        51           Si  tau(  51) = (   0.4282340   0.2429080   0.8605180  )
        52           Si  tau(  52) = (   0.8200210   0.0097406   0.1133200  )
        53           Si  tau(  53) = (   0.9340860   0.9646970   0.9024110  )
        54           Si  tau(  54) = (   0.4843500   0.9167100   0.1559680  )
        55           Si  tau(  55) = (   0.1666640   0.0161769   0.7771980  )
        56           Si  tau(  56) = (   0.8682810   0.4228350   0.3579900  )
        57           Si  tau(  57) = (   0.8659250   0.9124380   0.5152820  )
        58           Si  tau(  58) = (   0.3982200   0.8227320   0.3523020  )
        59           Si  tau(  59) = (   0.0039754   0.0767465   0.6194580  )
        60           Si  tau(  60) = (   0.5739220   0.1058740   0.3598890  )
        61           Si  tau(  61) = (   0.6392620   0.2449850   0.8164000  )
        62           Si  tau(  62) = (   0.9840140   0.7031200   0.4993050  )
        63           Si  tau(  63) = (   0.4658930   0.4462530   0.7775790  )
        64           Si  tau(  64) = (   0.1294180   0.4056270   0.4512090  )

     number of k points=     1  Fermi-Dirac smearing, width (Ry)=  0.0100
                       cart. coord. in units 2pi/alat
        k(    1) = (   0.0000000   0.0000000   0.0000000), wk =   2.0000000

     Dense  grid:    91386 G-vectors     FFT dimensions: (  72,  72,  72)

     Estimated max dynamical RAM per process >     146.52 MB

     Estimated total dynamical RAM >     563.75 MB

     Initial potential from superposition of free atoms

     starting charge     255.9608, renormalised to     256.0000
     Starting wfcs are  256 randomized atomic wfcs

     total cpu time spent up to now is        4.5 secs

     Self-consistent Calculation

     iteration #  1     ecut=    30.00 Ry     beta= 0.50
     Davidson diagonalization with overlap
     ethr =  1.00E-02,  avg # of iterations =  3.0

     Threshold (ethr) on eigenvalues was too large:
     Diagonalizing with lowered threshold

     Davidson diagonalization with overlap
     ethr =  5.59E-04,  avg # of iterations =  4.0

     total cpu time spent up to now is        4.7 secs

     total energy              =    -500.34817581 Ry
     estimated scf accuracy    <       1.87669459 Ry

     iteration #  2     ecut=    30.00 Ry     beta= 0.50
     Davidson diagonalization with overlap
     ethr =  7.33E-04,  avg # of iterations =  6.0

     total cpu time spent up to now is        4.8 secs

     total energy              =    -499.29805146 Ry
     estimated scf accuracy    <      16.35924230 Ry

     iteration #  3     ecut=    30.00 Ry     beta= 0.50
     Davidson diagonalization with overlap
     ethr =  7.33E-04,  avg # of iterations =  4.0

     total cpu time spent up to now is        4.9 secs

     total energy              =    -500.68004311 Ry
     estimated scf accuracy    <       2.75986591 Ry

     iteration #  4     ecut=    30.00 Ry     beta= 0.50
     Davidson diagonalization with overlap
     ethr =  7.33E-04,  avg # of iterations =  2.0

     total cpu time spent up to now is        5.0 secs

     total energy              =    -500.91299143 Ry
     estimated scf accuracy    <       0.47560843 Ry

     iteration #  5     ecut=    30.00 Ry     beta= 0.50
     Davidson diagonalization with overlap
     ethr =  1.86E-04,  avg # of iterations =  2.0

     total cpu time spent up to now is        5.1 secs

     total energy              =    -500.93352433 Ry
     estimated scf accuracy    <       0.34654447 Ry

     iteration #  6     ecut=    30.00 Ry     beta= 0.50
     Davidson diagonalization with overlap
     ethr =  1.35E-04,  avg # of iterations =  2.0

     total cpu time spent up to now is        5.2 secs

     total energy              =    -500.96407518 Ry
     estimated scf accuracy    <       0.21025854 Ry

     iteration #  7     ecut=    30.00 Ry     beta= 0.50
     Davidson diagonalization with overlap
     ethr =  8.21E-05,  avg # of iterations =  1.0

     total cpu time spent up to now is        5.3 secs

     total energy              =    -500.98120018 Ry
     estimated scf accuracy    <       0.01348720 Ry

     iteration #  8     ecut=    30.00 Ry     beta= 0.50
     Davidson diagonalization with overlap
     ethr =  5.27E-06,  avg # of iterations = 12.0

     total cpu time spent up to now is        5.4 secs

     total energy              =    -500.98277427 Ry
     estimated scf accuracy    <       0.01741155 Ry

     iteration #  9     ecut=    30.00 Ry     beta= 0.50
     Davidson diagonalization with overlap
     ethr =  5.27E-06,  avg # of iterations =  2.0

     total cpu time spent up to now is        5.5 secs

     total energy              =    -500.98440822 Ry
     estimated scf accuracy    <       0.00630997 Ry

     iteration # 10     ecut=    30.00 Ry     beta= 0.50
     Davidson diagonalization with overlap
     ethr =  2.46E-06,  avg # of iterations =  2.0

     total cpu time spent up to now is        5.6 secs

     total energy              =    -500.98489567 Ry
     estimated scf accuracy    <       0.00116251 Ry

     iteration # 11     ecut=    30.00 Ry     beta= 0.50
     Davidson diagonalization with overlap
     ethr =  4.54E-07,  avg # of iterations =  2.0

     total cpu time spent up to now is        5.7 secs

     total energy              =    -500.98496746 Ry
     estimated scf accuracy    <       0.00076206 Ry

     iteration # 12     ecut=    30.00 Ry     beta= 0.50
     Davidson diagonalization with overlap
     ethr =  2.98E-07,  avg # of iterations =  2.0

     total cpu time spent up to now is        5.8 secs

     total energy              =    -500.98503120 Ry
     estimated scf accuracy    <       0.00051370 Ry

     iteration # 13     ecut=    30.00 Ry     beta= 0.50
     Davidson diagonalization with overlap
     ethr =  2.01E-07,  avg # of iterations =  2.0

     total cpu time spent up to now is        5.8 secs

     total energy              =    -500.98506245 Ry
     estimated scf accuracy    <       0.00031114 Ry

     iteration # 14     ecut=    30.00 Ry     beta= 0.50
     Davidson diagonalization with overlap
     ethr =  1.22E-07,  avg # of iterations =  1.0

     total cpu time spent up to now is        5.9 secs

     total energy              =    -500.98508747 Ry
     estimated scf accuracy    <       0.00002580 Ry

     iteration # 15     ecut=    30.00 Ry     beta= 0.50
     Davidson diagonalization with overlap
     ethr =  1.01E-08,  avg # of iterations =  3.0

     total cpu time spent up to now is        6.0 secs

     total energy              =    -500.98509002 Ry
     estimated scf accuracy    <       0.00001134 Ry

     iteration # 16     ecut=    30.00 Ry     beta= 0.50
     Davidson diagonalization with overlap
     ethr =  4.43E-09,  avg # of iterations =  5.0

     total cpu time spent up to now is        6.1 secs

     total energy              =    -500.98509065 Ry
     estimated scf accuracy    <       0.00003599 Ry

     iteration # 17     ecut=    30.00 Ry     beta= 0.50
     Davidson diagonalization with overlap
     ethr =  4.43E-09,  avg # of iterations =  3.0

     total cpu time spent up to now is        6.2 secs

     total energy              =    -500.98509266 Ry
     estimated scf accuracy    <       0.00000212 Ry

     iteration # 18     ecut=    30.00 Ry     beta= 0.50
     Davidson diagonalization with overlap
     ethr =  8.30E-10,  avg # of iterations =  5.0

     total cpu time spent up to now is        6.3 secs

     total energy              =    -500.98509270 Ry
     estimated scf accuracy    <       0.00000694 Ry

     iteration # 19     ecut=    30.00 Ry     beta= 0.50
     Davidson diagonalization with overlap
     ethr =  8.30E-10,  avg # of iterations =  3.0

     total cpu time spent up to now is        6.4 secs

     End of self-consistent calculation

          k = 0.0000 0.0000 0.0000 ( 11444 PWs)   bands (ev):

    -5.8513  -5.2790  -4.8374  -4.6997  -4.4904  -4.4136  -4.3086  -4.0487
    -3.8274  -3.6883  -3.5287  -3.5006  -3.3346  -3.1122  -3.0854  -2.9509
    -2.7966  -2.7120  -2.6058  -2.5595  -2.3276  -2.1163  -2.0273  -1.8975
    -1.8359  -1.5592  -1.4537  -1.3027  -1.2232  -1.0109  -0.7595  -0.6704
    -0.5275  -0.4289  -0.3166  -0.1846  -0.1357  -0.0618   0.0096   0.1637
     0.2047   0.2929   0.3673   0.4276   0.5721   0.6564   0.7052   0.7534
     0.8064   0.8964   1.0012   1.0175   1.2357   1.3222   1.3409   1.5304
     1.6416   1.6868   1.8197   1.9600   1.9913   2.0713   2.1956   2.2178
     2.3782   2.4165   2.5535   2.6492   2.7448   2.8421   2.9141   2.9451
     3.0542   3.1703   3.2915   3.3787   3.4804   3.5644   3.6116   3.6901
     3.8837   3.8983   3.9218   4.0016   4.1596   4.2501   4.3470   4.3975
     4.5129   4.6317   4.6509   4.8505   4.8805   4.9616   5.0402   5.0901
     5.1135   5.1504   5.2691   5.3091   5.3361   5.4162   5.4881   5.5704
     5.5756   5.6283   5.6559   5.7534   5.8264   5.9186   5.9802   6.0232
     6.1121   6.1696   6.1749   6.3057   6.3423   6.3866   6.4537   6.4768
     6.5783   6.5956   6.6604   6.7593   6.8179   6.8525   6.9380   6.9998
     7.0345   7.1011   7.1489   7.1849   7.2238   7.2851   7.3538   7.4214
     7.5069   7.5797   7.6523   7.6934   7.7843   7.8691   7.8809   7.9056
     7.9916   8.0355   8.1628   8.1923   8.2353   8.2862   8.3125   8.4615
     8.4664   8.5016

     the Fermi energy is     7.0042 ev

!    total energy              =    -500.98509299 Ry
     estimated scf accuracy    <       0.00000029 Ry
     smearing contrib. (-TS)   =      -0.15672882 Ry
     internal energy E=F+TS    =    -500.82836417 Ry

     The total energy is F=E-TS. E is the sum of the following terms:
     one-electron contribution =     160.62782265 Ry
     hartree contribution      =      36.30608285 Ry
     xc contribution           =    -151.17241212 Ry
     ewald contribution        =    -546.58985754 Ry

     convergence has been achieved in  19 iterations

     Forces acting on atoms (cartesian axes, Ry/au):

     atom    1 type  1   force =    -0.01311726    0.01718846    0.00200437
     atom    2 type  1   force =     0.01588269   -0.02556286   -0.04921713
     atom    3 type  1   force =     0.01393252    0.00972739    0.01518709
     atom    4 type  1   force =     0.01544800    0.01262987   -0.03160270
     atom    5 type  1   force =     0.01895617   -0.03386281   -0.00611190
     atom    6 type  1   force =     0.00116834    0.02045946   -0.02311903
     atom    7 type  1   force =     0.00571310    0.05189980   -0.00317910
     atom    8 type  1   force =     0.01970438    0.01738866   -0.01187051
     atom    9 type  1   force =     0.07005064    0.02041472    0.07488820
     atom   10 type  1   force =    -0.01307751    0.05814927    0.00140559
     atom   11 type  1   force =     0.01773257    0.02109656   -0.00930092
     atom   12 type  1   force =     0.03012219    0.03335298    0.03062633
     atom   13 type  1   force =     0.00911695    0.00783379   -0.01515269
     atom   14 type  1   force =    -0.01191837    0.04097941   -0.00044088
     atom   15 type  1   force =    -0.14975393   -0.02871697    0.07521214
     atom   16 type  1   force =    -0.02536125    0.01141807    0.03798718
     atom   17 type  1   force =    -0.02368258   -0.03488134   -0.01741504
     atom   18 type  1   force =    -0.01262045   -0.00037016    0.02016407
     atom   19 type  1   force =    -0.00602024    0.01259066    0.00070965
     atom   20 type  1   force =    -0.03349493    0.02595178   -0.01308210
     atom   21 type  1   force =     0.00644275    0.00050298   -0.01218705
     atom   22 type  1   force =     0.04380235   -0.01709651   -0.00016817
     atom   23 type  1   force =     0.01966710   -0.03935311    0.00658389
     atom   24 type  1   force =    -0.00431666   -0.00974394   -0.01111716
     atom   25 type  1   force =    -0.00823831   -0.02555395   -0.01130730
     atom   26 type  1   force =     0.05074406   -0.00756756    0.02842167
     atom   27 type  1   force =     0.01727035    0.05613498    0.05174361
     atom   28 type  1   force =     0.02213577   -0.01380919   -0.00658168
     atom   29 type  1   force =    -0.03810428   -0.02426896   -0.02090538
     atom   30 type  1   force =    -0.07149603   -0.02778294   -0.06958712
     atom   31 type  1   force =     0.02402596    0.03734352    0.02360146
     atom   32 type  1   force =    -0.02791028   -0.02506042    0.03835598
     atom   33 type  1   force =    -0.01407174   -0.03146133   -0.00647879
     atom   34 type  1   force =     0.01662245    0.00775842    0.00933558
     atom   35 type  1   force =     0.01425601   -0.01406010    0.02009741
     atom   36 type  1   force =    -0.02383089    0.03243897    0.00907665
     atom   37 type  1   force =     0.01070370    0.01085718   -0.00925578
     atom   38 type  1   force =     0.15326377   -0.03794914   -0.05014456
     atom   39 type  1   force =    -0.00250958   -0.01896167    0.00104282
     atom   40 type  1   force =    -0.01561041   -0.02566340    0.00448528
     atom   41 type  1   force =     0.02346583    0.01780939    0.01568813
     atom   42 type  1   force =    -0.02529108    0.02803792    0.01342895
     atom   43 type  1   force =     0.02753444    0.00617347    0.01382521
     atom   44 type  1   force =     0.00441370    0.01264334   -0.03206786
     atom   45 type  1   force =    -0.01000740    0.03164318   -0.08828553
     atom   46 type  1   force =    -0.00930362   -0.01901713    0.01172149
     atom   47 type  1   force =    -0.00310410    0.02504718   -0.01795961
     atom   48 type  1   force =    -0.04047612   -0.03379965   -0.04229978
     atom   49 type  1   force =    -0.00286391   -0.04951591    0.01991487
     atom   50 type  1   force =     0.01847100   -0.00996150   -0.00932272
     atom   51 type  1   force =    -0.06238607   -0.01215752    0.01766506
     atom   52 type  1   force =    -0.01542456   -0.00425518    0.02615543
     atom   53 type  1   force =     0.00517661   -0.00684008    0.03758751
     atom   54 type  1   force =     0.00347046    0.01210685   -0.01224763
     atom   55 type  1   force =     0.02020468    0.05867537    0.01099899
     atom   56 type  1   force =     0.01670290   -0.05815958   -0.00143249
     atom   57 type  1   force =    -0.00126315   -0.00189745    0.00002854
     atom   58 type  1   force =     0.00330275   -0.04645452   -0.03771885
     atom   59 type  1   force =    -0.02184328   -0.01741649    0.03284211
     atom   60 type  1   force =     0.01057647    0.00373602   -0.01544542
     atom   61 type  1   force =     0.02741597    0.01139150   -0.03782747
     atom   62 type  1   force =    -0.06211807    0.00597609    0.05414748
     atom   63 type  1   force =    -0.00492940    0.00572388   -0.02398538
     atom   64 type  1   force =    -0.00335116   -0.02387979   -0.00811505

     Total force =     0.435950     Total SCF correction =     0.000966


     Computing stress (Cartesian axis) and pressure

          total   stress  (Ry/bohr**3)                   (kbar)     P=      -11.45
  -0.00008250   0.00003607  -0.00006499          -12.14        5.31       -9.56
   0.00003607  -0.00014924  -0.00002333            5.31      -21.95       -3.43
  -0.00006499  -0.00002333  -0.00000186           -9.56       -3.43       -0.27

 
     init_run     :      0.95s CPU      4.45s WALL (       1 calls)
     electrons    :      1.71s CPU      1.87s WALL (       1 calls)
     forces       :      0.03s CPU      0.03s WALL (       1 calls)
     stress       :      0.14s CPU      0.14s WALL (       1 calls)

     Called by init_run:
     wfcinit      :      0.44s CPU      3.78s WALL (       1 calls)
                                        3.78s GPU  (       1 calls)
     potinit      :      0.04s CPU      0.13s WALL (       1 calls)
     hinit0       :      0.45s CPU      0.48s WALL (       1 calls)

     Called by electrons:
     c_bands      :      1.11s CPU      1.19s WALL (      20 calls)
     sum_band     :      0.31s CPU      0.36s WALL (      20 calls)
     v_of_rho     :      0.13s CPU      0.23s WALL (      20 calls)
     mix_rho      :      0.14s CPU      0.16s WALL (      20 calls)

     Called by c_bands:
     init_us_2    :      0.05s CPU      0.05s WALL (      41 calls)
     init_us_2:gp :      0.05s CPU      0.05s WALL (      41 calls)
     regterg      :      0.96s CPU      1.03s WALL (      20 calls)

     Called by *egterg:
     rdiaghg      :      0.40s CPU      1.08s WALL (      85 calls)
                                        1.06s GPU  (      85 calls)
     h_psi        :      0.84s CPU      3.54s WALL (      87 calls)
                                        3.54s GPU  (      87 calls)
     g_psi        :      0.00s CPU      0.00s WALL (      66 calls)
                                        0.00s GPU  (      66 calls)

     Called by h_psi:
     h_psi:calbec :      0.43s CPU      3.04s WALL (      87 calls)
                                        3.04s GPU  (      87 calls)
     vloc_psi     :      0.37s CPU      0.44s WALL (      87 calls)
                                        0.44s GPU  (      87 calls)
     add_vuspsi   :      0.03s CPU      0.05s WALL (      87 calls)
                                        0.05s GPU  (      87 calls)

     General routines
     calbec       :      0.43s CPU      3.04s WALL (      92 calls)
     fft          :      0.54s CPU      0.67s WALL (     167 calls)
                                        0.13s GPU  (     106 calls)
     ffts         :      0.03s CPU      0.03s WALL (      20 calls)
     fftw         :      0.45s CPU      0.60s WALL (    2106 calls)
                                        0.52s GPU  (    2106 calls)
 
     Parallel routines
 
     PWSCF        :      2.86s CPU      6.58s WALL

 
   This run was terminated on:  12: 9:19  11May2023            

=------------------------------------------------------------------------------=
   JOB DONE.
=------------------------------------------------------------------------------=
