An instance of this daemon is already running
An instance of this daemon is already running

     Program PWSCF v.7.1 starts on 11May2023 at 12:12:41 

     This program is part of the open-source Quantum ESPRESSO suite
     for quantum simulation of materials; please cite
         "P. Giannozzi et al., J. Phys.:Condens. Matter 21 395502 (2009);
         "P. Giannozzi et al., J. Phys.:Condens. Matter 29 465901 (2017);
         "P. Giannozzi et al., J. Chem. Phys. 152 154105 (2020);
          URL http://www.quantum-espresso.org", 
     in publications or presentations arising from this work. More details at
     http://www.quantum-espresso.org/quote

     Parallel version (MPI & OpenMP), running on       4 processor cores
     Number of MPI processes:                 4
     Threads/MPI process:                     1

     MPI processes distributed on     1 nodes
     701349 MiB available memory on the printing compute node when the environment starts
 
     Reading input from pw-si-65.in
Warning: card &CELL ignored
Warning: card / ignored

     Current dimensions of program PWSCF are:
     Max number of different atomic species (ntypx) = 10
     Max number of k-points (npk) =  40000
     Max angular momentum in pseudopotentials (lmaxx) =  4

     IMPORTANT: XC functional enforced from input :
     Exchange-correlation= PBE
                           (   1   4   3   4   0   0   0)
     Any further DFT definition will be discarded
     Please, verify this is what you really want


     gamma-point specific algorithms are used
 
     K-points division:     npool     =       2
     R & G space division:  proc/nbgrp/npool/nimage =       2
     Subspace diagonalization in iterative solution of the eigenvalue problem:
     a serial algorithm will be used

     Message from routine divide_et_impera:
     suboptimal parallelization: some nodes have no k-points
 
     Parallelization info
     --------------------
     sticks:   dense  smooth     PW     G-vecs:    dense   smooth      PW
     Min        2019    2019    534                96753    96753   13070
     Max        2022    2022    535                96758    96758   13075
     Sum        4041    4041   1069               193511   193511   26145
 
     Using Slab Decomposition
 


     bravais-lattice index     =            0
     lattice parameter (alat)  =      20.5786  a.u.
     unit-cell volume          =    8714.6172 (a.u.)^3
     number of atoms/cell      =           64
     number of atomic types    =            1
     number of electrons       =       256.00
     number of Kohn-Sham states=          154
     kinetic-energy cutoff     =      30.0000  Ry
     charge density cutoff     =     120.0000  Ry
     scf convergence threshold =      1.0E-06
     mixing beta               =       0.5000
     number of iterations used =            8  plain     mixing
     Exchange-correlation= PBE
                           (   1   4   3   4   0   0   0)

     GPU acceleration is ACTIVE.
     GPU-aware MPI enabled

     Message from routine print_cuda_info:
     High GPU oversubscription detected. Are you sure this is what you want?

     celldm(1)=  20.578613  celldm(2)=   0.000000  celldm(3)=   0.000000
     celldm(4)=   0.000000  celldm(5)=   0.000000  celldm(6)=   0.000000

     crystal axes: (cart. coord. in units of alat)
               a(1) = (   1.000000   0.000000   0.000000 )  
               a(2) = (   0.000000   1.000000   0.000000 )  
               a(3) = (   0.000000   0.000000   1.000000 )  

     reciprocal axes: (cart. coord. in units 2 pi/alat)
               b(1) = (  1.000000  0.000000  0.000000 )  
               b(2) = (  0.000000  1.000000  0.000000 )  
               b(3) = (  0.000000  0.000000  1.000000 )  


     PseudoPot. # 1 for Si read from file:
     /home/ppiaggi/pseudos/Si_ONCV_PBE_sr.upf
     MD5 check sum: 8553c464762ac42b85b1eed164b4d029
     Pseudo is Norm-conserving, Zval =  4.0
     Generated using ONCVPSP code by D. R. Hamann
     Using radial grid of 1510 points,  4 beta functions with: 
                l(1) =   0
                l(2) =   0
                l(3) =   1
                l(4) =   1

     atomic species   valence    mass     pseudopotential
        Si             4.00    28.08500     Si( 1.00)

     No symmetry found



   Cartesian axes

     site n.     atom                  positions (alat units)
         1           Si  tau(   1) = (   0.2837340   0.2073300   0.7683850  )
         2           Si  tau(   2) = (   0.8517930   0.6709740   0.6028920  )
         3           Si  tau(   3) = (   0.0378516   0.3257500   0.8090480  )
         4           Si  tau(   4) = (   0.3480290   0.9179850   0.0899402  )
         5           Si  tau(   5) = (   0.9147510   0.0261286   0.1956940  )
         6           Si  tau(   6) = (   0.2447980   0.5192190   0.5035590  )
         7           Si  tau(   7) = (   0.1781810   0.1423690   0.1928200  )
         8           Si  tau(   8) = (   0.9905740   0.6299280   0.0489411  )
         9           Si  tau(   9) = (   0.4431910   0.4437570   0.6021230  )
        10           Si  tau(  10) = (   0.7304730   0.6026230   0.2769350  )
        11           Si  tau(  11) = (   0.9526190   0.1130470   0.9693090  )
        12           Si  tau(  12) = (   0.3765770   0.8879140   0.5498960  )
        13           Si  tau(  13) = (   0.9196420   0.9456770   0.6021000  )
        14           Si  tau(  14) = (   0.6589890   0.7628420   0.6829210  )
        15           Si  tau(  15) = (   0.0779440   0.9691030   0.8166240  )
        16           Si  tau(  16) = (   0.6264740   0.3588570   0.0283389  )
        17           Si  tau(  17) = (   0.6336710   0.1106050   0.5415710  )
        18           Si  tau(  18) = (   0.4250460   0.0928084   0.6187710  )
        19           Si  tau(  19) = (   0.5584840   0.0096402   0.9223340  )
        20           Si  tau(  20) = (   0.5836870   0.3282900   0.3137070  )
        21           Si  tau(  21) = (   0.1172110   0.5078800   0.8913640  )
        22           Si  tau(  22) = (   0.1506480   0.8342920   0.4087120  )
        23           Si  tau(  23) = (   0.1538260   0.6679720   0.6895810  )
        24           Si  tau(  24) = (   0.6596650   0.8019940   0.9187310  )
        25           Si  tau(  25) = (   0.6724540   0.3660180   0.8149040  )
        26           Si  tau(  26) = (   0.0162473   0.2856230   0.0964429  )
        27           Si  tau(  27) = (   0.3516610   0.7825210   0.8901620  )
        28           Si  tau(  28) = (   0.9931680   0.9888600   0.4068160  )
        29           Si  tau(  29) = (   0.4787990   0.8904110   0.7706480  )
        30           Si  tau(  30) = (   0.3225920   0.4408790   0.0391882  )
        31           Si  tau(  31) = (   0.8946280   0.5135110   0.7707390  )
        32           Si  tau(  32) = (   0.0068648   0.8419850   0.1191150  )
        33           Si  tau(  33) = (   0.6995450   0.1607490   0.9715850  )
        34           Si  tau(  34) = (   0.6672270   0.7380480   0.1180490  )
        35           Si  tau(  35) = (   0.4545980   0.5398820   0.4220740  )
        36           Si  tau(  36) = (   0.6497470   0.3654660   0.6100350  )
        37           Si  tau(  37) = (   0.7413200   0.6098430   0.8771410  )
        38           Si  tau(  38) = (   0.1483350   0.8852410   0.6105530  )
        39           Si  tau(  39) = (   0.5153350   0.7515770   0.4755080  )
        40           Si  tau(  40) = (   0.5370240   0.5643200   0.1902130  )
        41           Si  tau(  41) = (   0.0098161   0.7135240   0.8291560  )
        42           Si  tau(  42) = (   0.6534040   0.5881140   0.5279760  )
        43           Si  tau(  43) = (   0.3213100   0.6664340   0.1256150  )
        44           Si  tau(  44) = (   0.1566080   0.2620510   0.5494980  )
        45           Si  tau(  45) = (   0.1101490   0.6610530   0.2332900  )
        46           Si  tau(  46) = (   0.8466280   0.4492030   0.0421990  )
        47           Si  tau(  47) = (   0.3517260   0.3426940   0.2868790  )
        48           Si  tau(  48) = (   0.5312340   0.6105890   0.8743540  )
        49           Si  tau(  49) = (   0.1682190   0.9409110   0.2434040  )
        50           Si  tau(  50) = (   0.9240520   0.2602960   0.3890210  )
        51           Si  tau(  51) = (   0.3071810   0.2431780   0.0012088  )
        52           Si  tau(  52) = (   0.7159840   0.0398055   0.1961190  )
        53           Si  tau(  53) = (   0.8740890   0.9096930   0.8818590  )
        54           Si  tau(  54) = (   0.5155930   0.1509610   0.1198530  )
        55           Si  tau(  55) = (   0.1564690   0.1287480   0.9238200  )
        56           Si  tau(  56) = (   0.7576120   0.4499430   0.4002500  )
        57           Si  tau(  57) = (   0.7143660   0.9041270   0.5129540  )
        58           Si  tau(  58) = (   0.2914830   0.6853720   0.3609690  )
        59           Si  tau(  59) = (   0.9878630   0.1595040   0.6565920  )
        60           Si  tau(  60) = (   0.7544870   0.1429030   0.3855020  )
        61           Si  tau(  61) = (   0.7770240   0.1554650   0.7302600  )
        62           Si  tau(  62) = (   0.9326510   0.6849750   0.3840490  )
        63           Si  tau(  63) = (   0.4149110   0.3824890   0.8222600  )
        64           Si  tau(  64) = (   0.0919666   0.3249650   0.3133360  )

     number of k points=     1  Fermi-Dirac smearing, width (Ry)=  0.0100
                       cart. coord. in units 2pi/alat
        k(    1) = (   0.0000000   0.0000000   0.0000000), wk =   2.0000000

     Dense  grid:    96756 G-vectors     FFT dimensions: (  72,  72,  72)

     Estimated max dynamical RAM per process >     154.20 MB

     Estimated total dynamical RAM >     593.20 MB

     Initial potential from superposition of free atoms

     starting charge     255.9608, renormalised to     256.0000
     Starting wfcs are  256 randomized atomic wfcs

     total cpu time spent up to now is        4.5 secs

     Self-consistent Calculation

     iteration #  1     ecut=    30.00 Ry     beta= 0.50
     Davidson diagonalization with overlap
     ethr =  1.00E-02,  avg # of iterations =  3.0

     Threshold (ethr) on eigenvalues was too large:
     Diagonalizing with lowered threshold

     Davidson diagonalization with overlap
     ethr =  6.50E-04,  avg # of iterations =  4.0

     total cpu time spent up to now is        4.7 secs

     total energy              =    -500.05286621 Ry
     estimated scf accuracy    <       2.11863410 Ry

     iteration #  2     ecut=    30.00 Ry     beta= 0.50
     Davidson diagonalization with overlap
     ethr =  8.28E-04,  avg # of iterations =  5.0

     total cpu time spent up to now is        4.8 secs

     total energy              =    -498.95693626 Ry
     estimated scf accuracy    <      16.51028644 Ry

     iteration #  3     ecut=    30.00 Ry     beta= 0.50
     Davidson diagonalization with overlap
     ethr =  8.28E-04,  avg # of iterations =  4.0

     total cpu time spent up to now is        4.9 secs

     total energy              =    -500.35682094 Ry
     estimated scf accuracy    <       3.96568010 Ry

     iteration #  4     ecut=    30.00 Ry     beta= 0.50
     Davidson diagonalization with overlap
     ethr =  8.28E-04,  avg # of iterations =  2.0

     total cpu time spent up to now is        5.0 secs

     total energy              =    -500.64306806 Ry
     estimated scf accuracy    <       0.66268944 Ry

     iteration #  5     ecut=    30.00 Ry     beta= 0.50
     Davidson diagonalization with overlap
     ethr =  2.59E-04,  avg # of iterations =  2.0

     total cpu time spent up to now is        5.1 secs

     total energy              =    -500.66558918 Ry
     estimated scf accuracy    <       0.76828469 Ry

     iteration #  6     ecut=    30.00 Ry     beta= 0.50
     Davidson diagonalization with overlap
     ethr =  2.59E-04,  avg # of iterations =  2.0

     total cpu time spent up to now is        5.2 secs

     total energy              =    -500.72964912 Ry
     estimated scf accuracy    <       0.16120678 Ry

     iteration #  7     ecut=    30.00 Ry     beta= 0.50
     Davidson diagonalization with overlap
     ethr =  6.30E-05,  avg # of iterations =  2.0

     total cpu time spent up to now is        5.3 secs

     total energy              =    -500.74648829 Ry
     estimated scf accuracy    <       0.01933906 Ry

     iteration #  8     ecut=    30.00 Ry     beta= 0.50
     Davidson diagonalization with overlap
     ethr =  7.55E-06,  avg # of iterations = 14.0

     total cpu time spent up to now is        5.4 secs

     total energy              =    -500.74779874 Ry
     estimated scf accuracy    <       0.04529443 Ry

     iteration #  9     ecut=    30.00 Ry     beta= 0.50
     Davidson diagonalization with overlap
     ethr =  7.55E-06,  avg # of iterations =  3.0

     total cpu time spent up to now is        5.5 secs

     total energy              =    -500.75144323 Ry
     estimated scf accuracy    <       0.00281829 Ry

     iteration # 10     ecut=    30.00 Ry     beta= 0.50
     Davidson diagonalization with overlap
     ethr =  1.10E-06,  avg # of iterations =  4.0

     total cpu time spent up to now is        5.6 secs

     total energy              =    -500.75174955 Ry
     estimated scf accuracy    <       0.00186874 Ry

     iteration # 11     ecut=    30.00 Ry     beta= 0.50
     Davidson diagonalization with overlap
     ethr =  7.30E-07,  avg # of iterations =  3.0

     total cpu time spent up to now is        5.7 secs

     total energy              =    -500.75178681 Ry
     estimated scf accuracy    <       0.00216758 Ry

     iteration # 12     ecut=    30.00 Ry     beta= 0.50
     Davidson diagonalization with overlap
     ethr =  7.30E-07,  avg # of iterations =  2.0

     total cpu time spent up to now is        5.8 secs

     total energy              =    -500.75192257 Ry
     estimated scf accuracy    <       0.00069151 Ry

     iteration # 13     ecut=    30.00 Ry     beta= 0.50
     Davidson diagonalization with overlap
     ethr =  2.70E-07,  avg # of iterations =  2.0

     total cpu time spent up to now is        5.9 secs

     total energy              =    -500.75196245 Ry
     estimated scf accuracy    <       0.00081424 Ry

     iteration # 14     ecut=    30.00 Ry     beta= 0.50
     Davidson diagonalization with overlap
     ethr =  2.70E-07,  avg # of iterations =  1.0

     total cpu time spent up to now is        6.0 secs

     total energy              =    -500.75201241 Ry
     estimated scf accuracy    <       0.00003810 Ry

     iteration # 15     ecut=    30.00 Ry     beta= 0.50
     Davidson diagonalization with overlap
     ethr =  1.49E-08,  avg # of iterations =  4.0

     total cpu time spent up to now is        6.1 secs

     total energy              =    -500.75201717 Ry
     estimated scf accuracy    <       0.00002933 Ry

     iteration # 16     ecut=    30.00 Ry     beta= 0.50
     Davidson diagonalization with overlap
     ethr =  1.15E-08,  avg # of iterations =  3.0

     total cpu time spent up to now is        6.1 secs

     total energy              =    -500.75201878 Ry
     estimated scf accuracy    <       0.00005896 Ry

     iteration # 17     ecut=    30.00 Ry     beta= 0.50
     Davidson diagonalization with overlap
     ethr =  1.15E-08,  avg # of iterations =  2.0

     total cpu time spent up to now is        6.2 secs

     total energy              =    -500.75202203 Ry
     estimated scf accuracy    <       0.00001214 Ry

     iteration # 18     ecut=    30.00 Ry     beta= 0.50
     Davidson diagonalization with overlap
     ethr =  4.74E-09,  avg # of iterations =  2.0

     total cpu time spent up to now is        6.3 secs

     total energy              =    -500.75202315 Ry
     estimated scf accuracy    <       0.00000403 Ry

     iteration # 19     ecut=    30.00 Ry     beta= 0.50
     Davidson diagonalization with overlap
     ethr =  1.57E-09,  avg # of iterations =  2.0

     total cpu time spent up to now is        6.4 secs

     End of self-consistent calculation

          k = 0.0000 0.0000 0.0000 ( 12056 PWs)   bands (ev):

    -6.3734  -5.8738  -5.7058  -5.4315  -5.0758  -4.9715  -4.8991  -4.6761
    -4.4109  -4.3742  -4.2524  -4.1824  -3.9539  -3.8104  -3.7745  -3.5886
    -3.3816  -3.2979  -3.2048  -3.0021  -2.8357  -2.7795  -2.6280  -2.5243
    -2.2780  -2.2313  -2.0785  -1.9251  -1.6993  -1.5709  -1.4379  -1.3328
    -1.2903  -1.1804  -1.1325  -1.0653  -0.9996  -0.8397  -0.7697  -0.6531
    -0.4888  -0.3966  -0.3242  -0.1699  -0.0840  -0.0491   0.0882   0.2188
     0.2934   0.4227   0.4574   0.5816   0.6242   0.7181   0.8653   0.9340
     1.0314   1.1832   1.2139   1.4450   1.4972   1.5400   1.6681   1.7055
     1.8404   1.9785   2.1111   2.1264   2.1898   2.2380   2.2980   2.4452
     2.5019   2.6259   2.6492   2.6991   2.8738   2.9962   3.0984   3.1185
     3.2285   3.2644   3.4258   3.5067   3.5437   3.6197   3.7813   3.8387
     3.9247   3.9563   4.0126   4.0704   4.0907   4.1685   4.2858   4.3273
     4.4752   4.5060   4.5653   4.5873   4.6317   4.6752   4.7150   4.7924
     4.9445   4.9922   5.1352   5.1771   5.2571   5.3166   5.3596   5.4025
     5.4589   5.5156   5.5577   5.6391   5.6618   5.6820   5.7996   5.8223
     5.8928   5.9857   6.0474   6.0591   6.1307   6.1694   6.2262   6.2341
     6.3172   6.3873   6.4449   6.5520   6.5657   6.6682   6.7857   6.8266
     6.8575   6.9609   7.0091   7.0683   7.1233   7.1343   7.2146   7.2589
     7.3200   7.3671   7.3989   7.4568   7.5289   7.5517   7.6505   7.6910
     7.7628   7.8607

     the Fermi energy is     6.3164 ev

!    total energy              =    -500.75202309 Ry
     estimated scf accuracy    <       0.00000068 Ry
     smearing contrib. (-TS)   =      -0.15159651 Ry
     internal energy E=F+TS    =    -500.60042658 Ry

     The total energy is F=E-TS. E is the sum of the following terms:
     one-electron contribution =     119.88219677 Ry
     hartree contribution      =      50.47502898 Ry
     xc contribution           =    -150.76155980 Ry
     ewald contribution        =    -520.19609253 Ry

     convergence has been achieved in  19 iterations

     Forces acting on atoms (cartesian axes, Ry/au):

     atom    1 type  1   force =     0.00185885    0.00547069   -0.05537986
     atom    2 type  1   force =     0.01876857    0.00992227    0.00429605
     atom    3 type  1   force =    -0.00536707   -0.01034021   -0.01082915
     atom    4 type  1   force =     0.00623950   -0.02262712   -0.01613452
     atom    5 type  1   force =     0.07254636   -0.01810185   -0.00187949
     atom    6 type  1   force =    -0.02607268   -0.02393089    0.02743748
     atom    7 type  1   force =     0.00904317    0.06533852   -0.00563623
     atom    8 type  1   force =     0.00097400   -0.02427144   -0.03038440
     atom    9 type  1   force =    -0.00621821   -0.03608253    0.07205306
     atom   10 type  1   force =     0.03736689    0.08407701   -0.05240564
     atom   11 type  1   force =    -0.06816652   -0.01775313    0.00678112
     atom   12 type  1   force =    -0.04422644    0.03635828    0.05190235
     atom   13 type  1   force =    -0.02325709   -0.00642286    0.03448746
     atom   14 type  1   force =    -0.01876566    0.00584068    0.01249275
     atom   15 type  1   force =     0.00564895   -0.01598073   -0.04483992
     atom   16 type  1   force =    -0.00180977    0.01576013    0.03772488
     atom   17 type  1   force =    -0.01586221   -0.00200284    0.08220142
     atom   18 type  1   force =    -0.00555148   -0.01404214    0.01301459
     atom   19 type  1   force =    -0.00255352   -0.01019571    0.03929832
     atom   20 type  1   force =    -0.01251699   -0.01262063   -0.01700730
     atom   21 type  1   force =     0.01324929    0.01754292    0.01577521
     atom   22 type  1   force =    -0.03363100   -0.05777159    0.04526345
     atom   23 type  1   force =     0.05433380   -0.00951389   -0.02002700
     atom   24 type  1   force =     0.00784147    0.05866131   -0.01916596
     atom   25 type  1   force =     0.00333093   -0.01368246    0.02705746
     atom   26 type  1   force =    -0.01313784    0.01376700    0.00337807
     atom   27 type  1   force =    -0.04490775   -0.03779332    0.04816933
     atom   28 type  1   force =    -0.02934026    0.04076623   -0.03917576
     atom   29 type  1   force =     0.02919895    0.02718040   -0.08719118
     atom   30 type  1   force =    -0.00623390    0.07443691    0.00092198
     atom   31 type  1   force =     0.02713741   -0.01019877   -0.02620527
     atom   32 type  1   force =    -0.00157917    0.00912998   -0.01171239
     atom   33 type  1   force =     0.04360477   -0.00208883   -0.01707859
     atom   34 type  1   force =     0.00552657   -0.00340832    0.02845106
     atom   35 type  1   force =     0.01990450    0.01904649   -0.10637780
     atom   36 type  1   force =    -0.01147193   -0.00857486   -0.05411414
     atom   37 type  1   force =     0.01208016   -0.02012990    0.01800197
     atom   38 type  1   force =     0.02228395   -0.01769826    0.06319024
     atom   39 type  1   force =     0.03917331    0.01269918   -0.01967980
     atom   40 type  1   force =    -0.04256745   -0.02477300   -0.00393103
     atom   41 type  1   force =    -0.05659230    0.01070075    0.04578882
     atom   42 type  1   force =    -0.01356396   -0.00903877    0.03593623
     atom   43 type  1   force =     0.02526150    0.00527755    0.01537195
     atom   44 type  1   force =    -0.00316799    0.01946693    0.01289675
     atom   45 type  1   force =    -0.03436099    0.00234769   -0.00366035
     atom   46 type  1   force =     0.00402447    0.01530618    0.00651500
     atom   47 type  1   force =     0.00297589    0.01052087   -0.01560043
     atom   48 type  1   force =    -0.04580278   -0.00014039   -0.01006997
     atom   49 type  1   force =     0.02547209    0.02670626   -0.10826206
     atom   50 type  1   force =    -0.07436735   -0.01530793    0.07764561
     atom   51 type  1   force =     0.04900516   -0.04582398    0.04285082
     atom   52 type  1   force =    -0.08671008    0.00444717   -0.00687699
     atom   53 type  1   force =     0.01123150   -0.00850189   -0.00554433
     atom   54 type  1   force =    -0.01777473    0.00475566   -0.00211797
     atom   55 type  1   force =    -0.00041376   -0.01599188   -0.00963559
     atom   56 type  1   force =     0.03654331   -0.11104297    0.04112369
     atom   57 type  1   force =    -0.00847187   -0.00131064    0.00090073
     atom   58 type  1   force =     0.04727518   -0.02540577   -0.01180361
     atom   59 type  1   force =     0.00564750   -0.01464152    0.00378320
     atom   60 type  1   force =    -0.00409849   -0.01391181   -0.07093474
     atom   61 type  1   force =    -0.02113879    0.01158119    0.00814447
     atom   62 type  1   force =    -0.00895054    0.02512258   -0.00301032
     atom   63 type  1   force =     0.02873669    0.02568827    0.00405700
     atom   64 type  1   force =     0.12236587    0.02320372   -0.04024076

     Total force =     0.479210     Total SCF correction =     0.001555


     Computing stress (Cartesian axis) and pressure

          total   stress  (Ry/bohr**3)                   (kbar)     P=       -6.81
  -0.00000804   0.00007340  -0.00007430           -1.18       10.80      -10.93
   0.00007340  -0.00007449  -0.00000856           10.80      -10.96       -1.26
  -0.00007430  -0.00000856  -0.00005646          -10.93       -1.26       -8.31

 
     init_run     :      0.91s CPU      4.47s WALL (       1 calls)
     electrons    :      1.74s CPU      1.85s WALL (       1 calls)
     forces       :      0.03s CPU      0.03s WALL (       1 calls)
     stress       :      0.15s CPU      0.15s WALL (       1 calls)

     Called by init_run:
     wfcinit      :      0.40s CPU      3.79s WALL (       1 calls)
                                        3.79s GPU  (       1 calls)
     potinit      :      0.04s CPU      0.14s WALL (       1 calls)
     hinit0       :      0.45s CPU      0.48s WALL (       1 calls)

     Called by electrons:
     c_bands      :      1.11s CPU      1.16s WALL (      20 calls)
     sum_band     :      0.32s CPU      0.36s WALL (      20 calls)
     v_of_rho     :      0.13s CPU      0.23s WALL (      20 calls)
     mix_rho      :      0.15s CPU      0.16s WALL (      20 calls)

     Called by c_bands:
     init_us_2    :      0.05s CPU      0.06s WALL (      41 calls)
     init_us_2:gp :      0.05s CPU      0.06s WALL (      41 calls)
     regterg      :      0.96s CPU      1.00s WALL (      20 calls)

     Called by *egterg:
     rdiaghg      :      0.38s CPU      1.09s WALL (      85 calls)
                                        1.07s GPU  (      85 calls)
     h_psi        :      0.81s CPU      3.52s WALL (      87 calls)
                                        3.51s GPU  (      87 calls)
     g_psi        :      0.00s CPU      0.00s WALL (      66 calls)
                                        0.00s GPU  (      66 calls)

     Called by h_psi:
     h_psi:calbec :      0.39s CPU      3.03s WALL (      87 calls)
                                        3.03s GPU  (      87 calls)
     vloc_psi     :      0.37s CPU      0.43s WALL (      87 calls)
                                        0.43s GPU  (      87 calls)
     add_vuspsi   :      0.03s CPU      0.05s WALL (      87 calls)
                                        0.05s GPU  (      87 calls)

     General routines
     calbec       :      0.39s CPU      3.03s WALL (      92 calls)
     fft          :      0.56s CPU      0.68s WALL (     167 calls)
                                        0.13s GPU  (     106 calls)
     ffts         :      0.03s CPU      0.03s WALL (      20 calls)
     fftw         :      0.46s CPU      0.59s WALL (    2098 calls)
                                        0.52s GPU  (    2098 calls)
 
     Parallel routines
 
     PWSCF        :      2.86s CPU      6.58s WALL

 
   This run was terminated on:  12:12:48  11May2023            

=------------------------------------------------------------------------------=
   JOB DONE.
=------------------------------------------------------------------------------=
