An instance of this daemon is already running
An instance of this daemon is already running
An instance of this daemon is already running

     Program PWSCF v.7.1 starts on 11May2023 at 12:15:29 

     This program is part of the open-source Quantum ESPRESSO suite
     for quantum simulation of materials; please cite
         "P. Giannozzi et al., J. Phys.:Condens. Matter 21 395502 (2009);
         "P. Giannozzi et al., J. Phys.:Condens. Matter 29 465901 (2017);
         "P. Giannozzi et al., J. Chem. Phys. 152 154105 (2020);
          URL http://www.quantum-espresso.org", 
     in publications or presentations arising from this work. More details at
     http://www.quantum-espresso.org/quote

     Parallel version (MPI & OpenMP), running on       4 processor cores
     Number of MPI processes:                 4
     Threads/MPI process:                     1

     MPI processes distributed on     1 nodes
     701362 MiB available memory on the printing compute node when the environment starts
 
     Reading input from pw-si-84.in
Warning: card &CELL ignored
Warning: card / ignored

     Current dimensions of program PWSCF are:
     Max number of different atomic species (ntypx) = 10
     Max number of k-points (npk) =  40000
     Max angular momentum in pseudopotentials (lmaxx) =  4

     IMPORTANT: XC functional enforced from input :
     Exchange-correlation= PBE
                           (   1   4   3   4   0   0   0)
     Any further DFT definition will be discarded
     Please, verify this is what you really want


     gamma-point specific algorithms are used
 
     K-points division:     npool     =       2
     R & G space division:  proc/nbgrp/npool/nimage =       2
     Subspace diagonalization in iterative solution of the eigenvalue problem:
     a serial algorithm will be used

     Message from routine divide_et_impera:
     suboptimal parallelization: some nodes have no k-points
 
     Parallelization info
     --------------------
     sticks:   dense  smooth     PW     G-vecs:    dense   smooth      PW
     Min        2030    2030    542                97706    97706   13370
     Max        2031    2031    543                97707    97707   13375
     Sum        4061    4061   1085               195413   195413   26745
 
     Using Slab Decomposition
 


     bravais-lattice index     =            0
     lattice parameter (alat)  =      20.6636  a.u.
     unit-cell volume          =    8822.9821 (a.u.)^3
     number of atoms/cell      =           64
     number of atomic types    =            1
     number of electrons       =       256.00
     number of Kohn-Sham states=          154
     kinetic-energy cutoff     =      30.0000  Ry
     charge density cutoff     =     120.0000  Ry
     scf convergence threshold =      1.0E-06
     mixing beta               =       0.5000
     number of iterations used =            8  plain     mixing
     Exchange-correlation= PBE
                           (   1   4   3   4   0   0   0)

     GPU acceleration is ACTIVE.
     GPU-aware MPI enabled

     Message from routine print_cuda_info:
     High GPU oversubscription detected. Are you sure this is what you want?

     celldm(1)=  20.663559  celldm(2)=   0.000000  celldm(3)=   0.000000
     celldm(4)=   0.000000  celldm(5)=   0.000000  celldm(6)=   0.000000

     crystal axes: (cart. coord. in units of alat)
               a(1) = (   1.000000   0.000000   0.000000 )  
               a(2) = (   0.000000   1.000000   0.000000 )  
               a(3) = (   0.000000   0.000000   1.000000 )  

     reciprocal axes: (cart. coord. in units 2 pi/alat)
               b(1) = (  1.000000  0.000000  0.000000 )  
               b(2) = (  0.000000  1.000000  0.000000 )  
               b(3) = (  0.000000  0.000000  1.000000 )  


     PseudoPot. # 1 for Si read from file:
     /home/ppiaggi/pseudos/Si_ONCV_PBE_sr.upf
     MD5 check sum: 8553c464762ac42b85b1eed164b4d029
     Pseudo is Norm-conserving, Zval =  4.0
     Generated using ONCVPSP code by D. R. Hamann
     Using radial grid of 1510 points,  4 beta functions with: 
                l(1) =   0
                l(2) =   0
                l(3) =   1
                l(4) =   1

     atomic species   valence    mass     pseudopotential
        Si             4.00    28.08500     Si( 1.00)

     No symmetry found



   Cartesian axes

     site n.     atom                  positions (alat units)
         1           Si  tau(   1) = (   0.2166200   0.2271480   0.6672880  )
         2           Si  tau(   2) = (   0.8757880   0.6683920   0.5640210  )
         3           Si  tau(   3) = (   0.9233200   0.2961750   0.8108600  )
         4           Si  tau(   4) = (   0.4260550   0.7204950   0.9896830  )
         5           Si  tau(   5) = (   0.8978960   0.9905240   0.2049270  )
         6           Si  tau(   6) = (   0.2144250   0.4985210   0.6588000  )
         7           Si  tau(   7) = (   0.1114360   0.0270157   0.2336880  )
         8           Si  tau(   8) = (   0.9322940   0.6515990   0.9857680  )
         9           Si  tau(   9) = (   0.4340830   0.4600910   0.7188880  )
        10           Si  tau(  10) = (   0.7863850   0.6417900   0.2613410  )
        11           Si  tau(  11) = (   0.8922080   0.0946537   0.9489450  )
        12           Si  tau(  12) = (   0.3207940   0.9405790   0.5781520  )
        13           Si  tau(  13) = (   0.8550390   0.0297538   0.5147220  )
        14           Si  tau(  14) = (   0.5806950   0.7500870   0.6678420  )
        15           Si  tau(  15) = (   0.0939960   0.1101490   0.8635600  )
        16           Si  tau(  16) = (   0.7232180   0.4184150   0.2062540  )
        17           Si  tau(  17) = (   0.6180310   0.1131740   0.6610370  )
        18           Si  tau(  18) = (   0.4103370   0.1039150   0.6987210  )
        19           Si  tau(  19) = (   0.5477340   0.0123688   0.0086270  )
        20           Si  tau(  20) = (   0.4381230   0.3810200   0.3673410  )
        21           Si  tau(  21) = (   0.2541350   0.3633340   0.8522390  )
        22           Si  tau(  22) = (   0.1561850   0.8071680   0.4065260  )
        23           Si  tau(  23) = (   0.2341300   0.8112960   0.7465080  )
        24           Si  tau(  24) = (   0.6674740   0.8492950   0.9283750  )
        25           Si  tau(  25) = (   0.7315510   0.3817650   0.8554080  )
        26           Si  tau(  26) = (   0.0881988   0.3756580   0.9916850  )
        27           Si  tau(  27) = (   0.1562930   0.6343300   0.9133170  )
        28           Si  tau(  28) = (   0.2182420   0.0200591   0.4094460  )
        29           Si  tau(  29) = (   0.4812260   0.9141080   0.7957380  )
        30           Si  tau(  30) = (   0.3325200   0.5221520   0.9852660  )
        31           Si  tau(  31) = (   0.0140047   0.4891180   0.7153740  )
        32           Si  tau(  32) = (   0.9628280   0.8446350   0.0514624  )
        33           Si  tau(  33) = (   0.5896820   0.2123230   0.9387660  )
        34           Si  tau(  34) = (   0.6276740   0.7104410   0.1039690  )
        35           Si  tau(  35) = (   0.5547550   0.5728300   0.3357930  )
        36           Si  tau(  36) = (   0.6192390   0.3413930   0.6848830  )
        37           Si  tau(  37) = (   0.7226740   0.6122850   0.7794610  )
        38           Si  tau(  38) = (   0.9953620   0.9003760   0.6371130  )
        39           Si  tau(  39) = (   0.4947070   0.8421580   0.4743210  )
        40           Si  tau(  40) = (   0.5354800   0.4978580   0.1187880  )
        41           Si  tau(  41) = (   0.9714380   0.7105610   0.7500120  )
        42           Si  tau(  42) = (   0.6659320   0.5664000   0.6053460  )
        43           Si  tau(  43) = (   0.2736200   0.5730230   0.2018410  )
        44           Si  tau(  44) = (   0.0778738   0.3383400   0.4898170  )
        45           Si  tau(  45) = (   0.0783286   0.6748440   0.1635860  )
        46           Si  tau(  46) = (   0.9829580   0.4807790   0.1478860  )
        47           Si  tau(  47) = (   0.2384250   0.4572260   0.4242050  )
        48           Si  tau(  48) = (   0.5527960   0.5534350   0.9167060  )
        49           Si  tau(  49) = (   0.2127900   0.8144990   0.0130072  )
        50           Si  tau(  50) = (   0.9549310   0.1162720   0.3589930  )
        51           Si  tau(  51) = (   0.3998160   0.3595400   0.1640060  )
        52           Si  tau(  52) = (   0.6987990   0.9685010   0.1377370  )
        53           Si  tau(  53) = (   0.8897970   0.8945670   0.8404990  )
        54           Si  tau(  54) = (   0.5958250   0.2506530   0.1644360  )
        55           Si  tau(  55) = (   0.2555740   0.2107790   0.0471578  )
        56           Si  tau(  56) = (   0.7131760   0.3346330   0.4109530  )
        57           Si  tau(  57) = (   0.6504360   0.0017341   0.4548090  )
        58           Si  tau(  58) = (   0.3680120   0.6712580   0.3973380  )
        59           Si  tau(  59) = (   0.0437179   0.1181240   0.5536380  )
        60           Si  tau(  60) = (   0.7291070   0.1334840   0.3109350  )
        61           Si  tau(  61) = (   0.8173110   0.1044690   0.7240800  )
        62           Si  tau(  62) = (   0.9628800   0.7129170   0.3619230  )
        63           Si  tau(  63) = (   0.4028390   0.2478410   0.8353890  )
        64           Si  tau(  64) = (   0.1610070   0.3265870   0.2086910  )

     number of k points=     1  Fermi-Dirac smearing, width (Ry)=  0.0100
                       cart. coord. in units 2pi/alat
        k(    1) = (   0.0000000   0.0000000   0.0000000), wk =   2.0000000

     Dense  grid:    97707 G-vectors     FFT dimensions: (  75,  75,  75)

     Estimated max dynamical RAM per process >     157.73 MB

     Estimated total dynamical RAM >     607.08 MB

     Initial potential from superposition of free atoms

     starting charge     255.9608, renormalised to     256.0000
     Starting wfcs are  256 randomized atomic wfcs

     total cpu time spent up to now is        4.2 secs

     Self-consistent Calculation

     iteration #  1     ecut=    30.00 Ry     beta= 0.50
     Davidson diagonalization with overlap
     ethr =  1.00E-02,  avg # of iterations =  3.0

     Threshold (ethr) on eigenvalues was too large:
     Diagonalizing with lowered threshold

     Davidson diagonalization with overlap
     ethr =  6.74E-04,  avg # of iterations =  4.0

     total cpu time spent up to now is        4.4 secs

     total energy              =    -500.17068161 Ry
     estimated scf accuracy    <       2.26033221 Ry

     iteration #  2     ecut=    30.00 Ry     beta= 0.50
     Davidson diagonalization with overlap
     ethr =  8.83E-04,  avg # of iterations =  3.0

     total cpu time spent up to now is        4.5 secs

     total energy              =    -499.39347919 Ry
     estimated scf accuracy    <      11.11314416 Ry

     iteration #  3     ecut=    30.00 Ry     beta= 0.50
     Davidson diagonalization with overlap
     ethr =  8.83E-04,  avg # of iterations =  4.0

     total cpu time spent up to now is        4.6 secs

     total energy              =    -500.36932461 Ry
     estimated scf accuracy    <       5.35144616 Ry

     iteration #  4     ecut=    30.00 Ry     beta= 0.50
     Davidson diagonalization with overlap
     ethr =  8.83E-04,  avg # of iterations =  2.0

     total cpu time spent up to now is        4.7 secs

     total energy              =    -500.75543105 Ry
     estimated scf accuracy    <       0.96020743 Ry

     iteration #  5     ecut=    30.00 Ry     beta= 0.50
     Davidson diagonalization with overlap
     ethr =  3.75E-04,  avg # of iterations =  2.0

     total cpu time spent up to now is        4.8 secs

     total energy              =    -500.79888752 Ry
     estimated scf accuracy    <       0.97313711 Ry

     iteration #  6     ecut=    30.00 Ry     beta= 0.50
     Davidson diagonalization with overlap
     ethr =  3.75E-04,  avg # of iterations =  1.0

     total cpu time spent up to now is        4.9 secs

     total energy              =    -500.87588913 Ry
     estimated scf accuracy    <       0.08304137 Ry

     iteration #  7     ecut=    30.00 Ry     beta= 0.50
     Davidson diagonalization with overlap
     ethr =  3.24E-05,  avg # of iterations = 10.0

     total cpu time spent up to now is        5.1 secs

     total energy              =    -500.88372040 Ry
     estimated scf accuracy    <       0.08440695 Ry

     iteration #  8     ecut=    30.00 Ry     beta= 0.50
     Davidson diagonalization with overlap
     ethr =  3.24E-05,  avg # of iterations =  2.0

     total cpu time spent up to now is        5.2 secs

     total energy              =    -500.89148196 Ry
     estimated scf accuracy    <       0.03193956 Ry

     iteration #  9     ecut=    30.00 Ry     beta= 0.50
     Davidson diagonalization with overlap
     ethr =  1.25E-05,  avg # of iterations =  2.0

     total cpu time spent up to now is        5.3 secs

     total energy              =    -500.89414806 Ry
     estimated scf accuracy    <       0.00546062 Ry

     iteration # 10     ecut=    30.00 Ry     beta= 0.50
     Davidson diagonalization with overlap
     ethr =  2.13E-06,  avg # of iterations = 10.0

     total cpu time spent up to now is        5.4 secs

     total energy              =    -500.89463323 Ry
     estimated scf accuracy    <       0.00543004 Ry

     iteration # 11     ecut=    30.00 Ry     beta= 0.50
     Davidson diagonalization with overlap
     ethr =  2.12E-06,  avg # of iterations =  2.0

     total cpu time spent up to now is        5.5 secs

     total energy              =    -500.89505882 Ry
     estimated scf accuracy    <       0.00082964 Ry

     iteration # 12     ecut=    30.00 Ry     beta= 0.50
     Davidson diagonalization with overlap
     ethr =  3.24E-07,  avg # of iterations =  4.0

     total cpu time spent up to now is        5.6 secs

     total energy              =    -500.89510906 Ry
     estimated scf accuracy    <       0.00105231 Ry

     iteration # 13     ecut=    30.00 Ry     beta= 0.50
     Davidson diagonalization with overlap
     ethr =  3.24E-07,  avg # of iterations =  2.0

     total cpu time spent up to now is        5.7 secs

     total energy              =    -500.89519163 Ry
     estimated scf accuracy    <       0.00050162 Ry

     iteration # 14     ecut=    30.00 Ry     beta= 0.50
     Davidson diagonalization with overlap
     ethr =  1.96E-07,  avg # of iterations =  1.0

     total cpu time spent up to now is        5.8 secs

     total energy              =    -500.89522265 Ry
     estimated scf accuracy    <       0.00010747 Ry

     iteration # 15     ecut=    30.00 Ry     beta= 0.50
     Davidson diagonalization with overlap
     ethr =  4.20E-08,  avg # of iterations =  2.0

     total cpu time spent up to now is        5.9 secs

     total energy              =    -500.89523574 Ry
     estimated scf accuracy    <       0.00006395 Ry

     iteration # 16     ecut=    30.00 Ry     beta= 0.50
     Davidson diagonalization with overlap
     ethr =  2.50E-08,  avg # of iterations =  2.0

     total cpu time spent up to now is        6.0 secs

     total energy              =    -500.89523975 Ry
     estimated scf accuracy    <       0.00001511 Ry

     iteration # 17     ecut=    30.00 Ry     beta= 0.50
     Davidson diagonalization with overlap
     ethr =  5.90E-09,  avg # of iterations =  2.0

     total cpu time spent up to now is        6.1 secs

     total energy              =    -500.89524099 Ry
     estimated scf accuracy    <       0.00000691 Ry

     iteration # 18     ecut=    30.00 Ry     beta= 0.50
     Davidson diagonalization with overlap
     ethr =  2.70E-09,  avg # of iterations =  3.0

     total cpu time spent up to now is        6.2 secs

     total energy              =    -500.89524138 Ry
     estimated scf accuracy    <       0.00001037 Ry

     iteration # 19     ecut=    30.00 Ry     beta= 0.50
     Davidson diagonalization with overlap
     ethr =  2.70E-09,  avg # of iterations =  2.0

     total cpu time spent up to now is        6.3 secs

     total energy              =    -500.89524194 Ry
     estimated scf accuracy    <       0.00000196 Ry

     iteration # 20     ecut=    30.00 Ry     beta= 0.50
     Davidson diagonalization with overlap
     ethr =  7.67E-10,  avg # of iterations =  2.0

     total cpu time spent up to now is        6.4 secs

     total energy              =    -500.89524218 Ry
     estimated scf accuracy    <       0.00000128 Ry

     iteration # 21     ecut=    30.00 Ry     beta= 0.50
     Davidson diagonalization with overlap
     ethr =  4.99E-10,  avg # of iterations =  2.0

     total cpu time spent up to now is        6.5 secs

     End of self-consistent calculation

          k = 0.0000 0.0000 0.0000 ( 12203 PWs)   bands (ev):

    -6.7669  -6.2677  -5.9590  -5.7504  -5.6221  -5.1708  -5.0376  -4.8945
    -4.8603  -4.5925  -4.5580  -4.3606  -4.2222  -4.1285  -3.9672  -3.8882
    -3.7290  -3.5176  -3.2497  -3.1913  -3.0035  -2.9619  -2.6984  -2.6048
    -2.5890  -2.4382  -2.1107  -1.9046  -1.8601  -1.8081  -1.7108  -1.5668
    -1.3825  -1.3418  -1.2816  -1.1899  -1.1055  -1.0677  -0.8936  -0.8158
    -0.7990  -0.6385  -0.5936  -0.4127  -0.3210  -0.2513  -0.1944  -0.0692
     0.2124   0.2829   0.2926   0.4875   0.5055   0.6069   0.7231   0.8383
     0.8988   0.9311   1.1713   1.2837   1.3213   1.3646   1.5027   1.6936
     1.7581   1.8249   1.8959   1.9705   2.0373   2.1155   2.2362   2.3790
     2.4210   2.4616   2.5391   2.6669   2.8435   2.8523   2.8975   3.0801
     3.1497   3.2078   3.2220   3.3469   3.4166   3.4849   3.5581   3.5876
     3.6724   3.7328   3.7418   3.8908   3.8924   3.9673   4.0348   4.0907
     4.2023   4.2061   4.2880   4.3581   4.4063   4.4716   4.6031   4.6427
     4.7383   4.7762   4.8377   4.9073   4.9553   5.0361   5.1246   5.1300
     5.2177   5.3094   5.3523   5.4497   5.5293   5.5451   5.5917   5.6277
     5.7202   5.7380   5.8745   5.9651   5.9869   6.0777   6.1793   6.2187
     6.2621   6.2788   6.3291   6.3946   6.4234   6.4844   6.5760   6.6017
     6.7012   6.7157   6.8461   6.8758   6.9150   6.9989   7.1410   7.2016
     7.2136   7.2808   7.2980   7.3495   7.4357   7.4889   7.5160   7.7022
     7.7271   7.7599

     the Fermi energy is     6.2074 ev

!    total energy              =    -500.89524199 Ry
     estimated scf accuracy    <       0.00000044 Ry
     smearing contrib. (-TS)   =      -0.15513069 Ry
     internal energy E=F+TS    =    -500.74011129 Ry

     The total energy is F=E-TS. E is the sum of the following terms:
     one-electron contribution =      86.25896436 Ry
     hartree contribution      =      65.87554477 Ry
     xc contribution           =    -151.30616584 Ry
     ewald contribution        =    -501.56845458 Ry

     convergence has been achieved in  21 iterations

     Forces acting on atoms (cartesian axes, Ry/au):

     atom    1 type  1   force =    -0.02328974    0.01665720    0.00735082
     atom    2 type  1   force =    -0.00969555   -0.01929319   -0.01602011
     atom    3 type  1   force =     0.02478210   -0.00878304    0.00502322
     atom    4 type  1   force =     0.00395283    0.04230460    0.01335025
     atom    5 type  1   force =     0.00448167   -0.05776917   -0.07135189
     atom    6 type  1   force =     0.04379061   -0.02923931   -0.03340659
     atom    7 type  1   force =     0.01664051    0.00336199   -0.05270220
     atom    8 type  1   force =     0.00282063   -0.06538891   -0.00947709
     atom    9 type  1   force =     0.01481145    0.00229535    0.02515853
     atom   10 type  1   force =    -0.04898120   -0.03225934   -0.02178689
     atom   11 type  1   force =    -0.00961833   -0.01465244    0.00783564
     atom   12 type  1   force =     0.01963874   -0.01533961    0.00827268
     atom   13 type  1   force =    -0.05897289   -0.06088237    0.05128574
     atom   14 type  1   force =    -0.03220084    0.04709325   -0.02369528
     atom   15 type  1   force =     0.02049662    0.02618473   -0.01104843
     atom   16 type  1   force =     0.05161322    0.04319850    0.02355365
     atom   17 type  1   force =    -0.01788260    0.01190249   -0.05019193
     atom   18 type  1   force =    -0.01736398   -0.07247609   -0.05118706
     atom   19 type  1   force =    -0.05644723    0.03175678   -0.03920165
     atom   20 type  1   force =     0.02947428   -0.00377724    0.05187686
     atom   21 type  1   force =    -0.12886160    0.08331431   -0.01070518
     atom   22 type  1   force =     0.01518456   -0.00506405    0.00122141
     atom   23 type  1   force =    -0.02994382    0.00961530    0.01953933
     atom   24 type  1   force =     0.04457477   -0.01495182   -0.01851045
     atom   25 type  1   force =    -0.00134446    0.00029149    0.04643478
     atom   26 type  1   force =     0.00295790   -0.01861250   -0.03636014
     atom   27 type  1   force =    -0.04690820   -0.01080981   -0.03411996
     atom   28 type  1   force =    -0.01252833    0.01196128    0.03732295
     atom   29 type  1   force =     0.00915271   -0.03560821    0.03165490
     atom   30 type  1   force =    -0.01086402   -0.00568430    0.02172663
     atom   31 type  1   force =    -0.04006704   -0.01312516   -0.01294530
     atom   32 type  1   force =     0.01678146    0.04076926    0.02277933
     atom   33 type  1   force =     0.02419053    0.02047252    0.01636080
     atom   34 type  1   force =    -0.00406372    0.02626144   -0.00910526
     atom   35 type  1   force =     0.03349291   -0.00922650   -0.00040147
     atom   36 type  1   force =    -0.01368019   -0.01195595   -0.06255769
     atom   37 type  1   force =     0.07741084    0.04365190    0.17054831
     atom   38 type  1   force =     0.01738801    0.00388820   -0.00639377
     atom   39 type  1   force =    -0.00064948    0.00313842    0.02367967
     atom   40 type  1   force =     0.06601489    0.05937040    0.00668759
     atom   41 type  1   force =     0.01093637   -0.03207926    0.02655398
     atom   42 type  1   force =    -0.03102711   -0.06429172   -0.18181388
     atom   43 type  1   force =     0.00184789    0.00360520    0.02121319
     atom   44 type  1   force =    -0.02738406   -0.00535191    0.03212647
     atom   45 type  1   force =     0.02929411    0.01481045    0.01326411
     atom   46 type  1   force =    -0.03801068   -0.00654726   -0.00567224
     atom   47 type  1   force =     0.02907588    0.02409064    0.00586180
     atom   48 type  1   force =     0.01163732   -0.00360873   -0.04930110
     atom   49 type  1   force =     0.00409130    0.02213312    0.00312569
     atom   50 type  1   force =     0.02046209    0.07495945   -0.01758638
     atom   51 type  1   force =    -0.08295381   -0.07309275   -0.01212287
     atom   52 type  1   force =     0.00819489   -0.02620414    0.00191618
     atom   53 type  1   force =    -0.03036301    0.02241817    0.01644724
     atom   54 type  1   force =    -0.00705677   -0.02542249   -0.02140006
     atom   55 type  1   force =    -0.01887409   -0.01110396   -0.00803266
     atom   56 type  1   force =    -0.01767836    0.00190216    0.01292885
     atom   57 type  1   force =    -0.02636671   -0.01467670    0.04918848
     atom   58 type  1   force =    -0.04165384    0.00481877   -0.02497796
     atom   59 type  1   force =     0.08143134    0.01861659    0.03103030
     atom   60 type  1   force =    -0.00668224    0.03927649   -0.01488362
     atom   61 type  1   force =     0.03764953    0.01363017    0.02186740
     atom   62 type  1   force =    -0.00159869    0.01884456    0.01424874
     atom   63 type  1   force =     0.12435917   -0.03599435    0.05106598
     atom   64 type  1   force =    -0.00561853    0.01667717    0.01445758

     Total force =     0.528064     Total SCF correction =     0.001255


     Computing stress (Cartesian axis) and pressure

          total   stress  (Ry/bohr**3)                   (kbar)     P=        3.75
   0.00003046  -0.00003278   0.00004747            4.48       -4.82        6.98
  -0.00003278  -0.00003233   0.00006304           -4.82       -4.76        9.27
   0.00004747   0.00006304   0.00007830            6.98        9.27       11.52

 
     init_run     :      0.61s CPU      4.10s WALL (       1 calls)
     electrons    :      2.20s CPU      2.36s WALL (       1 calls)
     forces       :      0.03s CPU      0.03s WALL (       1 calls)
     stress       :      0.15s CPU      0.15s WALL (       1 calls)

     Called by init_run:
     wfcinit      :      0.43s CPU      3.76s WALL (       1 calls)
                                        3.76s GPU  (       1 calls)
     potinit      :      0.03s CPU      0.11s WALL (       1 calls)
     hinit0       :      0.13s CPU      0.16s WALL (       1 calls)

     Called by electrons:
     c_bands      :      1.41s CPU      1.48s WALL (      22 calls)
     sum_band     :      0.42s CPU      0.47s WALL (      22 calls)
     v_of_rho     :      0.15s CPU      0.24s WALL (      22 calls)
     mix_rho      :      0.18s CPU      0.19s WALL (      22 calls)

     Called by c_bands:
     init_us_2    :      0.06s CPU      0.06s WALL (      45 calls)
     init_us_2:gp :      0.06s CPU      0.06s WALL (      45 calls)
     regterg      :      1.24s CPU      1.30s WALL (      22 calls)

     Called by *egterg:
     rdiaghg      :      0.39s CPU      1.07s WALL (      88 calls)
                                        1.05s GPU  (      88 calls)
     h_psi        :      1.10s CPU      3.79s WALL (      90 calls)
                                        3.79s GPU  (      90 calls)
     g_psi        :      0.00s CPU      0.01s WALL (      67 calls)
                                        0.00s GPU  (      67 calls)

     Called by h_psi:
     h_psi:calbec :      0.40s CPU      3.01s WALL (      90 calls)
                                        3.01s GPU  (      90 calls)
     vloc_psi     :      0.65s CPU      0.72s WALL (      90 calls)
                                        0.72s GPU  (      90 calls)
     add_vuspsi   :      0.03s CPU      0.05s WALL (      90 calls)
                                        0.05s GPU  (      90 calls)

     General routines
     calbec       :      0.41s CPU      3.01s WALL (      95 calls)
     fft          :      0.26s CPU      0.38s WALL (     183 calls)
                                        0.11s GPU  (     116 calls)
     ffts         :      0.04s CPU      0.05s WALL (      22 calls)
     fftw         :      0.73s CPU      0.94s WALL (    2292 calls)
                                        0.85s GPU  (    2292 calls)
 
     Parallel routines
 
     PWSCF        :      3.02s CPU      6.71s WALL

 
   This run was terminated on:  12:15:36  11May2023            

=------------------------------------------------------------------------------=
   JOB DONE.
=------------------------------------------------------------------------------=
