LAMMPS data file via write_data, version 23 Jun 2022, timestep = 500000

64 atoms
1 atom types

0.12214325541909421 10.739256744580505 xlo xhi
0.12214325541909421 10.739256744580505 ylo yhi
0.12214325541909421 10.739256744580505 zlo zhi

Masses

1 28.0855

Atoms # full

38 0 1 0 2.676735643073944 0.7332848477734545 2.9508169014664043 -2 2 2
18 0 1 0 1.6473548974457366 2.4917200934713404 1.490067434502406 4 -3 1
7 0 1 0 5.2686674213745235 3.3989006710174783 1.8871779750693802 -2 1 4
40 0 1 0 6.454772769927189 1.9472449899999802 0.27421098511599173 1 -3 -3
36 0 1 0 8.359790577475952 2.684090199046924 3.574952558123623 -1 0 -2
44 0 1 0 10.38776331330983 1.5339440826824828 2.717439568825757 4 -5 1
16 0 1 0 7.930744689002375 0.5067051665266066 1.6078601932217593 3 1 -6
41 0 1 0 2.8950954839594485 4.290876935227342 2.4076298614030187 -6 3 1
62 0 1 0 0.8357702349810253 6.047960257357438 1.9921127832601542 2 -1 -2
58 0 1 0 6.427036934525441 5.972699605749326 3.4331397511555624 -4 -2 -2
14 0 1 0 4.765631227206669 6.036247284430166 1.133233144392851 3 -2 0
26 0 1 0 9.84255808747653 4.716476906564581 0.6977328975636224 -5 -2 -5
64 0 1 0 7.911702119435898 4.659177223496981 1.9142023848683676 2 2 1
27 0 1 0 7.338252283760716 6.426854620380937 0.38025345907981034 -4 -5 3
49 0 1 0 1.4427180314826495 9.258984006001292 3.188468385798271 3 -1 4
51 0 1 0 3.367048037321747 7.779859259800778 0.4480454418448603 -2 0 4
15 0 1 0 0.945577742503768 8.350812967545867 1.1615682093647548 2 7 2
20 0 1 0 4.984422780318614 10.500131744272801 2.049017723383211 6 -5 -1
30 0 1 0 3.793186142164211 7.98456056113024 3.0761732294605837 -1 -3 1
6 0 1 0 6.04497806303576 8.41786606361083 3.3818209323851742 2 5 1
54 0 1 0 7.477552093568638 8.879050402114732 1.1441485072173867 -5 -7 -1
39 0 1 0 9.207691309344604 7.7156658256050195 2.3301753639121743 -6 3 5
59 0 1 0 9.745789559196147 9.711508344223056 3.5452672458534304 -7 4 4
55 0 1 0 2.8598278620155746 2.839478559733046 4.624038552993867 -2 3 4
53 0 1 0 0.3134040032417712 1.944999504413759 4.995949042955075 0 6 -7
1 0 1 0 4.361744626282214 1.1944380746900956 5.467984015022261 -1 0 2
28 0 1 0 6.052573190406714 1.6153314046686895 3.722543823321995 -1 -3 5
52 0 1 0 6.8715020496924915 1.3275228812505386 6.8511427021700495 1 6 -8
29 0 1 0 7.647823169747511 3.6109757350440503 6.252764194166856 -5 3 -2
23 0 1 0 2.4761434874874095 4.470750880918016 6.2024018847218905 4 0 7
13 0 1 0 0.42430929864754874 4.468580439947694 7.199546817905189 2 3 -2
21 0 1 0 1.0219463232138768 6.309022637819331 4.612481450782979 -3 -5 -3
37 0 1 0 6.861972419523373 5.655045554843307 7.057141664553216 -2 -4 -3
48 0 1 0 5.550583318328037 3.997221855156459 4.8931085805273975 0 2 -3
42 0 1 0 3.756113336544572 5.978619976069426 4.470558181894881 1 3 2
25 0 1 0 9.76209191326021 4.076114002382463 5.356940511651773 7 -2 -1
56 0 1 0 8.710109636504818 6.345499743089803 4.606092637096932 0 5 0
60 0 1 0 3.226072498820489 9.68961177952838 5.225890622461598 5 -1 -2
47 0 1 0 1.4106253559163224 9.647797196372384 6.623311316143214 3 -3 -4
57 0 1 0 4.797931069545128 7.887894617320908 6.167565111067973 4 -1 3
33 0 1 0 7.319328129112828 9.893238781264056 4.697415620915133 -2 2 2
8 0 1 0 10.279823959094958 8.230547586724107 5.525329698246782 1 -3 -4
24 0 1 0 7.4305795134119315 8.131362570435712 6.425536617877433 2 -5 3
12 0 1 0 2.878480189593285 0.7298945997258607 10.413840503946371 2 3 -6
19 0 1 0 2.9469224653482846 1.1795113752631956 7.6066460683466115 1 5 -3
3 0 1 0 1.5847100114066786 2.968723826025842 8.699102715608003 0 -2 -4
61 0 1 0 5.277271456570236 1.2667186767074239 8.604235491884431 -1 2 1
2 0 1 0 3.75219459227784 3.2523322406311164 10.291802868999557 1 -2 -1
5 0 1 0 10.445353201246267 2.6175635889111804 10.263032795929107 2 -4 -1
4 0 1 0 8.18336335012432 2.6309329347210793 8.950641482284453 1 -2 7
11 0 1 0 9.378887701030767 0.15218616408734362 10.129630426262171 1 6 -1
10 0 1 0 10.54467716687101 1.1990563868769013 7.206693849449387 0 6 0
35 0 1 0 2.069828732338883 5.605156629814286 10.377382397916804 -4 4 -1
17 0 1 0 4.31364465334685 3.83357552468667 7.452358849083114 1 5 2
63 0 1 0 5.156611650764865 5.367772566822986 9.213797601347071 4 0 3
46 0 1 0 10.057273572512894 6.561280693128333 7.935359204660934 1 2 -2
9 0 1 0 8.214800430383072 5.275427882201353 9.046408019359134 2 -4 8
34 0 1 0 0.992855652960298 9.99826594236253 9.55878071292 0 -3 -3
45 0 1 0 1.5363009180962297 7.599652109404817 8.611448805674147 -1 1 4
43 0 1 0 6.906278798012359 8.45767606456699 8.887750171204683 -2 -4 2
22 0 1 0 4.107039164895645 7.483408891954683 8.657099064624731 -2 -3 -1
32 0 1 0 4.903424239721163 9.640252660237774 10.287691320590493 -2 -2 3
31 0 1 0 8.524156547438984 10.410945378420841 7.716738888916237 -4 -2 -1
50 0 1 0 9.494396472955703 8.231050314665005 10.081095125327305 -2 -1 -5

Velocities

38 8.754388818079615 -6.573781080637407 -8.134229688611182
18 -3.1221695564329046 12.130107047401603 5.381227485237164
7 5.6176349569279225 12.477411386881482 -0.1596793936026223
40 -9.631921835921721 -1.1260683836673673 4.268683096970619
36 5.456441777016549 0.5215644210659073 -15.299056459776232
44 -1.3957505215392003 5.462500206431064 12.970756339755944
16 4.28850693507386 -0.38455957476679203 -5.4583094128081475
41 -3.627240010801619 8.183041235494604 2.0407435113753536
62 -4.822919344422963 -10.43080815432506 2.0587802714615413
58 -7.422052666248941 4.584724866776111 7.284064553656608
14 -4.551286084270307 5.347976203337637 -6.0493847586166805
26 0.9958702947523148 -3.1166126711349134 8.268613745111244
64 10.417447944020065 -1.2258600807822273 -13.644245436448983
27 -4.906730561199916 6.5304458254828255 -2.4117101709411912
49 5.517344563814901 -19.885205660689614 14.978949749503155
51 -3.0506860903566375 3.2729780062722202 3.980097862566057
15 4.072538257271619 -7.532618002959711 -7.703031605369375
20 -6.1282633749291415 -5.21574222754864 1.5309790042485418
30 5.123805065691849 -0.24757074319441172 -3.42712162628735
6 2.571512492495477 -9.787855536893002 -1.4015583826311022
54 -4.94502168363734 7.6321889157441145 0.47317201979076196
39 -8.07851538320501 9.99761888311517 -2.616915657520048
59 1.435728704405613 6.944799120707873 4.030369970381831
55 -1.025783066804156 -8.319117896798804 5.2982948785349135
53 4.866884105127413 2.006116650011751 -4.2027344518355285
1 1.7733288797115685 -13.477298770318304 9.251474606572481
28 0.1853790721579831 4.2726433805539665 -3.8929567689184883
52 5.19049471522447 -7.516801583521469 -6.51610379959775
29 -5.008785262351996 4.7053620049848055 4.714950415124773
23 4.612349396005735 0.135534402595806 2.5929102821367773
13 3.617967446320863 -5.56087531026502 8.385388872051353
21 8.201521519263702 -5.0527720721228935 -1.2911345623621358
37 0.43479509582813997 9.63514155035356 6.262001842419827
48 9.38944641564835 -1.373348999466205 2.717285637361071
42 -13.438998848597294 -5.930764207243973 -6.991021473590346
25 7.3833242530479835 0.8130680861196502 7.635979059990592
56 13.119851350854383 -8.140055911891961 2.8171102689689955
60 11.889779653342694 1.0616738623908224 5.252104021281598
47 -2.9794445380323724 5.409907989580304 -3.236706900531142
57 0.7484379693314204 8.202592731658653 6.392935767527718
33 5.322158999472733 26.48160710443996 3.9155401540869574
8 5.944264263582534 3.4786119126755306 -4.117916817873739
24 1.94246235610215 4.247801880842322 7.730768724898398
12 5.859568826452774 -3.1138003617622925 -0.10709086743091388
19 8.32717056295136 -14.070220820685813 2.4090560725270342
3 -8.251501108775795 10.590375180107573 -9.84178435925025
61 -12.373276204283938 -10.35077994197086 -12.59276587761398
2 -17.810229908920128 2.5580210260468665 -3.942010488154354
5 -7.13139953495356 -0.31189795319043984 6.19626108092015
4 1.8561720148058483 -6.926707095742637 -14.008061376089115
11 5.03428688781357 0.00746883006450857 7.36011595577375
10 -11.151858590929391 -11.386782244246051 -6.5486489460177815
35 -7.134111842579474 3.647531670245161 3.179328056737067
17 6.650090719015659 2.3338392268297836 -8.589256888855605
63 -7.594613887623008 2.384316668560366 4.514225817673207
46 -0.047552506097404044 -2.830139139686617 -9.910794882124103
9 -10.353167163689118 -3.4029506065571153 0.21342365207368194
34 5.325733375515466 3.823851572517065 9.08237881148172
45 -8.493087366698106 12.982103120033667 -12.284843845798544
43 7.819030151834114 -0.554224930386327 -3.35292497338596
22 5.252877865062261 6.387553919027631 -7.847045090241911
32 -6.194072670009307 -13.879846812817092 -8.336338871814077
31 4.951954365187791 -8.87174826314935 4.285276756152739
50 -9.280110455906355 -1.6536638499415197 16.442135489701556
