10.711291778585037 0.0 0.0 0.0 10.711291778585037 0.0 0.0 0.0 10.711291778585037
10.710365189293212 0.0 0.0 0.0 10.710365189293212 0.0 0.0 0.0 10.710365189293212
10.70783942647774 0.0 0.0 0.0 10.70783942647774 0.0 0.0 0.0 10.70783942647774
10.704736331327954 0.0 0.0 0.0 10.704736331327954 0.0 0.0 0.0 10.704736331327954
10.70277414223938 0.0 0.0 0.0 10.70277414223938 0.0 0.0 0.0 10.70277414223938
10.703247226663649 0.0 0.0 0.0 10.703247226663649 0.0 0.0 0.0 10.703247226663649
10.7063736056106 0.0 0.0 0.0 10.7063736056106 0.0 0.0 0.0 10.7063736056106
10.712479252240584 0.0 0.0 0.0 10.712479252240584 0.0 0.0 0.0 10.712479252240584
10.722178541292495 0.0 0.0 0.0 10.722178541292495 0.0 0.0 0.0 10.722178541292495
10.735615408967007 0.0 0.0 0.0 10.735615408967007 0.0 0.0 0.0 10.735615408967007
10.752514683115779 0.0 0.0 0.0 10.752514683115779 0.0 0.0 0.0 10.752514683115779
10.77282027095472 0.0 0.0 0.0 10.77282027095472 0.0 0.0 0.0 10.77282027095472
10.796724263810466 0.0 0.0 0.0 10.796724263810466 0.0 0.0 0.0 10.796724263810466
10.824487016869528 0.0 0.0 0.0 10.824487016869528 0.0 0.0 0.0 10.824487016869528
10.855902151020643 0.0 0.0 0.0 10.855902151020643 0.0 0.0 0.0 10.855902151020643
10.890521453168342 0.0 0.0 0.0 10.890521453168342 0.0 0.0 0.0 10.890521453168342
10.928505793183959 0.0 0.0 0.0 10.928505793183959 0.0 0.0 0.0 10.928505793183959
10.970071075368503 0.0 0.0 0.0 10.970071075368503 0.0 0.0 0.0 10.970071075368503
11.014850579916589 0.0 0.0 0.0 11.014850579916589 0.0 0.0 0.0 11.014850579916589
11.062428373542447 0.0 0.0 0.0 11.062428373542447 0.0 0.0 0.0 11.062428373542447
11.112355184796186 0.0 0.0 0.0 11.112355184796186 0.0 0.0 0.0 11.112355184796186
11.164192325772083 0.0 0.0 0.0 11.164192325772083 0.0 0.0 0.0 11.164192325772083
11.217729713118418 0.0 0.0 0.0 11.217729713118418 0.0 0.0 0.0 11.217729713118418
11.272968405189612 0.0 0.0 0.0 11.272968405189612 0.0 0.0 0.0 11.272968405189612
11.32932366117043 0.0 0.0 0.0 11.32932366117043 0.0 0.0 0.0 11.32932366117043
11.384888326401969 0.0 0.0 0.0 11.384888326401969 0.0 0.0 0.0 11.384888326401969
11.437531404266188 0.0 0.0 0.0 11.437531404266188 0.0 0.0 0.0 11.437531404266188
11.486026261994123 0.0 0.0 0.0 11.486026261994123 0.0 0.0 0.0 11.486026261994123
11.529705607126042 0.0 0.0 0.0 11.529705607126042 0.0 0.0 0.0 11.529705607126042
11.568022270428504 0.0 0.0 0.0 11.568022270428504 0.0 0.0 0.0 11.568022270428504
11.60075293911959 0.0 0.0 0.0 11.60075293911959 0.0 0.0 0.0 11.60075293911959
11.62797540224892 0.0 0.0 0.0 11.62797540224892 0.0 0.0 0.0 11.62797540224892
11.649986528230386 0.0 0.0 0.0 11.649986528230386 0.0 0.0 0.0 11.649986528230386
11.667443025979551 0.0 0.0 0.0 11.667443025979551 0.0 0.0 0.0 11.667443025979551
11.681277834914745 0.0 0.0 0.0 11.681277834914745 0.0 0.0 0.0 11.681277834914745
11.693091186914032 0.0 0.0 0.0 11.693091186914032 0.0 0.0 0.0 11.693091186914032
11.70329319431388 0.0 0.0 0.0 11.70329319431388 0.0 0.0 0.0 11.70329319431388
11.710837144596168 0.0 0.0 0.0 11.710837144596168 0.0 0.0 0.0 11.710837144596168
11.715067916376952 0.0 0.0 0.0 11.715067916376952 0.0 0.0 0.0 11.715067916376952
11.71627391123479 0.0 0.0 0.0 11.71627391123479 0.0 0.0 0.0 11.71627391123479
11.715420348397718 0.0 0.0 0.0 11.715420348397718 0.0 0.0 0.0 11.715420348397718
11.71418524879342 0.0 0.0 0.0 11.71418524879342 0.0 0.0 0.0 11.71418524879342
11.714356702208926 0.0 0.0 0.0 11.714356702208926 0.0 0.0 0.0 11.714356702208926
11.716401972119213 0.0 0.0 0.0 11.716401972119213 0.0 0.0 0.0 11.716401972119213
11.718897571833807 0.0 0.0 0.0 11.718897571833807 0.0 0.0 0.0 11.718897571833807
11.720750750417462 0.0 0.0 0.0 11.720750750417462 0.0 0.0 0.0 11.720750750417462
11.721528640913743 0.0 0.0 0.0 11.721528640913743 0.0 0.0 0.0 11.721528640913743
11.721159804399518 0.0 0.0 0.0 11.721159804399518 0.0 0.0 0.0 11.721159804399518
11.720811076619214 0.0 0.0 0.0 11.720811076619214 0.0 0.0 0.0 11.720811076619214
11.72188583552938 0.0 0.0 0.0 11.72188583552938 0.0 0.0 0.0 11.72188583552938
11.724494149989354 0.0 0.0 0.0 11.724494149989354 0.0 0.0 0.0 11.724494149989354
11.727533743874137 0.0 0.0 0.0 11.727533743874137 0.0 0.0 0.0 11.727533743874137
11.730153700232696 0.0 0.0 0.0 11.730153700232696 0.0 0.0 0.0 11.730153700232696
11.732165631978857 0.0 0.0 0.0 11.732165631978857 0.0 0.0 0.0 11.732165631978857
11.733637273795287 0.0 0.0 0.0 11.733637273795287 0.0 0.0 0.0 11.733637273795287
11.735364508203354 0.0 0.0 0.0 11.735364508203354 0.0 0.0 0.0 11.735364508203354
11.73861524379427 0.0 0.0 0.0 11.73861524379427 0.0 0.0 0.0 11.73861524379427
11.745278114024648 0.0 0.0 0.0 11.745278114024648 0.0 0.0 0.0 11.745278114024648
11.757884173482045 0.0 0.0 0.0 11.757884173482045 0.0 0.0 0.0 11.757884173482045
11.776534495013259 0.0 0.0 0.0 11.776534495013259 0.0 0.0 0.0 11.776534495013259
11.798110108152251 0.0 0.0 0.0 11.798110108152251 0.0 0.0 0.0 11.798110108152251
11.818569157381614 0.0 0.0 0.0 11.818569157381614 0.0 0.0 0.0 11.818569157381614
11.835613955262682 0.0 0.0 0.0 11.835613955262682 0.0 0.0 0.0 11.835613955262682
11.849305357174412 0.0 0.0 0.0 11.849305357174412 0.0 0.0 0.0 11.849305357174412
11.85992276868282 0.0 0.0 0.0 11.85992276868282 0.0 0.0 0.0 11.85992276868282
11.868434584079184 0.0 0.0 0.0 11.868434584079184 0.0 0.0 0.0 11.868434584079184
11.877291952192605 0.0 0.0 0.0 11.877291952192605 0.0 0.0 0.0 11.877291952192605
11.88711983130615 0.0 0.0 0.0 11.88711983130615 0.0 0.0 0.0 11.88711983130615
11.895903643787609 0.0 0.0 0.0 11.895903643787609 0.0 0.0 0.0 11.895903643787609
11.901210232832977 0.0 0.0 0.0 11.901210232832977 0.0 0.0 0.0 11.901210232832977
11.901949493393047 0.0 0.0 0.0 11.901949493393047 0.0 0.0 0.0 11.901949493393047
11.898433640020748 0.0 0.0 0.0 11.898433640020748 0.0 0.0 0.0 11.898433640020748
11.892182998835674 0.0 0.0 0.0 11.892182998835674 0.0 0.0 0.0 11.892182998835674
11.885348675189789 0.0 0.0 0.0 11.885348675189789 0.0 0.0 0.0 11.885348675189789
11.878877367108835 0.0 0.0 0.0 11.878877367108835 0.0 0.0 0.0 11.878877367108835
11.872404471496253 0.0 0.0 0.0 11.872404471496253 0.0 0.0 0.0 11.872404471496253
11.86519654874127 0.0 0.0 0.0 11.86519654874127 0.0 0.0 0.0 11.86519654874127
11.857250423780632 0.0 0.0 0.0 11.857250423780632 0.0 0.0 0.0 11.857250423780632
11.84994619077373 0.0 0.0 0.0 11.84994619077373 0.0 0.0 0.0 11.84994619077373
11.844938057673872 0.0 0.0 0.0 11.844938057673872 0.0 0.0 0.0 11.844938057673872
11.843288612315433 0.0 0.0 0.0 11.843288612315433 0.0 0.0 0.0 11.843288612315433
11.844792004764367 0.0 0.0 0.0 11.844792004764367 0.0 0.0 0.0 11.844792004764367
11.848794701168352 0.0 0.0 0.0 11.848794701168352 0.0 0.0 0.0 11.848794701168352
11.85446801001911 0.0 0.0 0.0 11.85446801001911 0.0 0.0 0.0 11.85446801001911
11.860628161901554 0.0 0.0 0.0 11.860628161901554 0.0 0.0 0.0 11.860628161901554
11.867212713905097 0.0 0.0 0.0 11.867212713905097 0.0 0.0 0.0 11.867212713905097
11.874994264753935 0.0 0.0 0.0 11.874994264753935 0.0 0.0 0.0 11.874994264753935
11.884135271851035 0.0 0.0 0.0 11.884135271851035 0.0 0.0 0.0 11.884135271851035
11.893377351794928 0.0 0.0 0.0 11.893377351794928 0.0 0.0 0.0 11.893377351794928
11.901175836314435 0.0 0.0 0.0 11.901175836314435 0.0 0.0 0.0 11.901175836314435
11.907539192244887 0.0 0.0 0.0 11.907539192244887 0.0 0.0 0.0 11.907539192244887
11.913809412986668 0.0 0.0 0.0 11.913809412986668 0.0 0.0 0.0 11.913809412986668
11.920685012454806 0.0 0.0 0.0 11.920685012454806 0.0 0.0 0.0 11.920685012454806
11.927131978384176 0.0 0.0 0.0 11.927131978384176 0.0 0.0 0.0 11.927131978384176
11.932629071224552 0.0 0.0 0.0 11.932629071224552 0.0 0.0 0.0 11.932629071224552
11.938855370258041 0.0 0.0 0.0 11.938855370258041 0.0 0.0 0.0 11.938855370258041
11.947009991038769 0.0 0.0 0.0 11.947009991038769 0.0 0.0 0.0 11.947009991038769
11.956920421796815 0.0 0.0 0.0 11.956920421796815 0.0 0.0 0.0 11.956920421796815
11.966739834075023 0.0 0.0 0.0 11.966739834075023 0.0 0.0 0.0 11.966739834075023
11.974243037712267 0.0 0.0 0.0 11.974243037712267 0.0 0.0 0.0 11.974243037712267
11.978508735188806 0.0 0.0 0.0 11.978508735188806 0.0 0.0 0.0 11.978508735188806
