-6824.509769509773
-6823.743406598324
-6822.444599491176
-6819.356301575658
-6817.525735455457
-6818.492961781991
-6818.014302111014
-6816.7229581340625
-6816.867917393679
-6817.687053654826
-6817.310128368366
-6816.276130748103
-6815.442119928193
-6815.757208161161
-6816.551109809422
-6815.824000951883
-6815.75301828833
-6816.831848432252
-6817.054221902054
-6816.635591088113
-6817.333105388788
-6816.185660924108
-6813.916197631547
-6811.9662702726455
-6813.258987199971
-6813.683413358391
-6812.058028691724
-6811.297397586172
-6810.917170334337
-6810.371359634769
-6810.176655108252
-6810.52260594857
-6810.428601229755
-6809.8601864417815
-6806.629598703405
-6806.156995061964
-6807.521909369018
-6808.649033324626
-6809.269286207034
-6809.720714221664
-6809.413757430481
-6807.455242703059
-6806.098280242656
-6806.9027771874535
-6805.504549071588
-6804.863939625024
-6806.871211437941
-6806.402201059741
-6805.50573263073
-6804.678646699843
-6805.152978128102
-6805.190297588676
-6804.894620868503
-6804.10658830757
-6803.1543704198075
-6805.339526042306
-6806.150791546727
-6802.6136584532915
-6802.29053728375
-6804.505775907455
-6806.992548631281
-6806.720917658632
-6804.8027510188085
-6804.851578717846
-6803.970622410321
-6801.286899132352
-6803.562460223923
-6804.182119489993
-6802.98934453333
-6803.170177784808
-6804.9486154651095
-6805.2971400941715
-6803.804008739595
-6803.965941372012
-6804.352179618542
-6805.779393844729
-6806.640192503313
-6805.704705534921
-6803.458182935585
-6803.114294037878
-6803.995857975604
-6805.3263999510145
-6807.879383550119
-6809.254284843223
-6809.053098156897
-6807.925936513523
-6806.8820715012425
-6807.297233544025
-6807.384271060117
-6806.3302255888475
-6805.399825516554
-6805.537072661813
-6807.003941901649
-6807.597666814098
-6806.563221702628
-6805.432651017082
-6806.253047029245
-6806.280595970327
-6807.485159442709
-6806.190086961939
-6805.441354986382
