An instance of this daemon is already running
An instance of this daemon is already running

     Program PWSCF v.7.1 starts on 10May2023 at 14:16:36 

     This program is part of the open-source Quantum ESPRESSO suite
     for quantum simulation of materials; please cite
         "P. Giannozzi et al., J. Phys.:Condens. Matter 21 395502 (2009);
         "P. Giannozzi et al., J. Phys.:Condens. Matter 29 465901 (2017);
         "P. Giannozzi et al., J. Chem. Phys. 152 154105 (2020);
          URL http://www.quantum-espresso.org", 
     in publications or presentations arising from this work. More details at
     http://www.quantum-espresso.org/quote

     Parallel version (MPI & OpenMP), running on       4 processor cores
     Number of MPI processes:                 4
     Threads/MPI process:                     1

     MPI processes distributed on     1 nodes
     752740 MiB available memory on the printing compute node when the environment starts
 
     Reading input from pw-si-5.in
Warning: card &CELL ignored
Warning: card / ignored

     Current dimensions of program PWSCF are:
     Max number of different atomic species (ntypx) = 10
     Max number of k-points (npk) =  40000
     Max angular momentum in pseudopotentials (lmaxx) =  4

     IMPORTANT: XC functional enforced from input :
     Exchange-correlation= PBE
                           (   1   4   3   4   0   0   0)
     Any further DFT definition will be discarded
     Please, verify this is what you really want


     gamma-point specific algorithms are used
 
     K-points division:     npool     =       2
     R & G space division:  proc/nbgrp/npool/nimage =       2
     Subspace diagonalization in iterative solution of the eigenvalue problem:
     a serial algorithm will be used

     Message from routine divide_et_impera:
     suboptimal parallelization: some nodes have no k-points
 
     Parallelization info
     --------------------
     sticks:   dense  smooth     PW     G-vecs:    dense   smooth      PW
     Min        1953    1953    519                91863    91863   12442
     Max        1956    1956    522                91868    91868   12443
     Sum        3909    3909   1041               183731   183731   24885
 
     Using Slab Decomposition
 


     bravais-lattice index     =            0
     lattice parameter (alat)  =      20.2262  a.u.
     unit-cell volume          =    8274.5290 (a.u.)^3
     number of atoms/cell      =           64
     number of atomic types    =            1
     number of electrons       =       256.00
     number of Kohn-Sham states=          154
     kinetic-energy cutoff     =      30.0000  Ry
     charge density cutoff     =     120.0000  Ry
     scf convergence threshold =      1.0E-06
     mixing beta               =       0.5000
     number of iterations used =            8  plain     mixing
     Exchange-correlation= PBE
                           (   1   4   3   4   0   0   0)

     GPU acceleration is ACTIVE.
     GPU-aware MPI enabled

     Message from routine print_cuda_info:
     High GPU oversubscription detected. Are you sure this is what you want?

     celldm(1)=  20.226206  celldm(2)=   0.000000  celldm(3)=   0.000000
     celldm(4)=   0.000000  celldm(5)=   0.000000  celldm(6)=   0.000000

     crystal axes: (cart. coord. in units of alat)
               a(1) = (   1.000000   0.000000   0.000000 )  
               a(2) = (   0.000000   1.000000   0.000000 )  
               a(3) = (   0.000000   0.000000   1.000000 )  

     reciprocal axes: (cart. coord. in units 2 pi/alat)
               b(1) = (  1.000000  0.000000  0.000000 )  
               b(2) = (  0.000000  1.000000  0.000000 )  
               b(3) = (  0.000000  0.000000  1.000000 )  


     PseudoPot. # 1 for Si read from file:
     /home/ppiaggi/pseudos/Si_ONCV_PBE_sr.upf
     MD5 check sum: 8553c464762ac42b85b1eed164b4d029
     Pseudo is Norm-conserving, Zval =  4.0
     Generated using ONCVPSP code by D. R. Hamann
     Using radial grid of 1510 points,  4 beta functions with: 
                l(1) =   0
                l(2) =   0
                l(3) =   1
                l(4) =   1

     atomic species   valence    mass     pseudopotential
        Si             4.00    28.08500     Si( 1.00)

     No symmetry found



   Cartesian axes

     site n.     atom                  positions (alat units)
         1           Si  tau(   1) = (   0.6719430   0.0407391   0.7384820  )
         2           Si  tau(   2) = (   0.8310090   0.8580460   0.5403000  )
         3           Si  tau(   3) = (   0.9818620   0.7683400   0.4165840  )
         4           Si  tau(   4) = (   0.8486390   0.5769680   0.5110140  )
         5           Si  tau(   5) = (   0.1669990   0.0560745   0.1424930  )
         6           Si  tau(   6) = (   0.4850000   0.8124110   0.9648230  )
         7           Si  tau(   7) = (   0.3794720   0.8633280   0.3498420  )
         8           Si  tau(   8) = (   0.4452870   0.3522670   0.0894789  )
         9           Si  tau(   9) = (   0.3261350   0.0945170   0.8761370  )
        10           Si  tau(  10) = (   0.9643580   0.9079020   0.8149060  )
        11           Si  tau(  11) = (   0.0096972   0.6727550   0.7874410  )
        12           Si  tau(  12) = (   0.8922370   0.6599250   0.2182040  )
        13           Si  tau(  13) = (   0.7381240   0.0748052   0.9963890  )
        14           Si  tau(  14) = (   0.9413770   0.2428100   0.5495830  )
        15           Si  tau(  15) = (   0.7652520   0.3995280   0.7756350  )
        16           Si  tau(  16) = (   0.2657070   0.9733960   0.5182950  )
        17           Si  tau(  17) = (   0.3709570   0.0576369   0.2313490  )
        18           Si  tau(  18) = (   0.8462450   0.4555460   0.2292020  )
        19           Si  tau(  19) = (   0.4776180   0.9176900   0.7613310  )
        20           Si  tau(  20) = (   0.6905350   0.3502960   0.1031900  )
        21           Si  tau(  21) = (   0.5018850   0.0351382   0.5330520  )
        22           Si  tau(  22) = (   0.9289990   0.1683360   0.8119030  )
        23           Si  tau(  23) = (   0.2457070   0.7731130   0.1655990  )
        24           Si  tau(  24) = (   0.2158430   0.1901140   0.5991390  )
        25           Si  tau(  25) = (   0.3790870   0.4454030   0.2866920  )
        26           Si  tau(  26) = (   0.0539677   0.5000820   0.5571300  )
        27           Si  tau(  27) = (   0.9975950   0.9835820   0.0172053  )
        28           Si  tau(  28) = (   0.6714370   0.8956600   0.4075220  )
        29           Si  tau(  29) = (   0.4918870   0.9995070   0.0592594  )
        30           Si  tau(  30) = (   0.8634770   0.0523638   0.6447690  )
        31           Si  tau(  31) = (   0.4321190   0.4353260   0.8860910  )
        32           Si  tau(  32) = (   0.2253840   0.3119710   0.4131010  )
        33           Si  tau(  33) = (   0.2327870   0.8522820   0.7589420  )
        34           Si  tau(  34) = (   0.6324540   0.2430650   0.7958710  )
        35           Si  tau(  35) = (   0.9595050   0.4513300   0.9079180  )
        36           Si  tau(  36) = (   0.5593860   0.6225150   0.9247600  )
        37           Si  tau(  37) = (   0.4401110   0.2159540   0.7022670  )
        38           Si  tau(  38) = (   0.7914540   0.7744710   0.8812880  )
        39           Si  tau(  39) = (   0.7589670   0.3759540   0.5368270  )
        40           Si  tau(  40) = (   0.9719070   0.1628130   0.3187090  )
        41           Si  tau(  41) = (   0.0837917   0.9627830   0.3193710  )
        42           Si  tau(  42) = (   0.8819280   0.2409160   0.0295205  )
        43           Si  tau(  43) = (   0.2718270   0.2572960   0.0130706  )
        44           Si  tau(  44) = (   0.1134670   0.4109780   0.0676189  )
        45           Si  tau(  45) = (   0.2468030   0.5703870   0.1470650  )
        46           Si  tau(  46) = (   0.3333260   0.6393500   0.4744850  )
        47           Si  tau(  47) = (   0.7901760   0.6199940   0.0227212  )
        48           Si  tau(  48) = (   0.0305963   0.3463180   0.7117900  )
        49           Si  tau(  49) = (   0.7935360   0.0825573   0.2463590  )
        50           Si  tau(  50) = (   0.6082170   0.6868990   0.4037690  )
        51           Si  tau(  51) = (   0.1518830   0.5345840   0.7876300  )
        52           Si  tau(  52) = (   0.0583255   0.3793810   0.3052320  )
        53           Si  tau(  53) = (   0.4412360   0.2174670   0.3892440  )
        54           Si  tau(  54) = (   0.2103680   0.9063720   0.9913040  )
        55           Si  tau(  55) = (   0.7323620   0.2899380   0.3018570  )
        56           Si  tau(  56) = (   0.1499540   0.1878200   0.8158820  )
        57           Si  tau(  57) = (   0.5738810   0.7865230   0.1854800  )
        58           Si  tau(  58) = (   0.5408750   0.6741630   0.7091210  )
        59           Si  tau(  59) = (   0.3549940   0.5417590   0.6727650  )
        60           Si  tau(  60) = (   0.8015920   0.7038660   0.6859900  )
        61           Si  tau(  61) = (   0.3073790   0.6466870   0.9473180  )
        62           Si  tau(  62) = (   0.1429640   0.7453810   0.5778100  )
        63           Si  tau(  63) = (   0.7726410   0.8780170   0.1463310  )
        64           Si  tau(  64) = (   0.5876930   0.5255190   0.2434380  )

     number of k points=     1  Fermi-Dirac smearing, width (Ry)=  0.0100
                       cart. coord. in units 2pi/alat
        k(    1) = (   0.0000000   0.0000000   0.0000000), wk =   2.0000000

     Dense  grid:    91866 G-vectors     FFT dimensions: (  72,  72,  72)

     Estimated max dynamical RAM per process >     147.22 MB

     Estimated total dynamical RAM >     566.46 MB

     Initial potential from superposition of free atoms

     starting charge     255.9608, renormalised to     256.0000
     Starting wfcs are  256 randomized atomic wfcs

     total cpu time spent up to now is        4.9 secs

     Self-consistent Calculation

     iteration #  1     ecut=    30.00 Ry     beta= 0.50
     Davidson diagonalization with overlap
     ethr =  1.00E-02,  avg # of iterations =  3.0

     Threshold (ethr) on eigenvalues was too large:
     Diagonalizing with lowered threshold

     Davidson diagonalization with overlap
     ethr =  5.60E-04,  avg # of iterations =  4.0

     total cpu time spent up to now is        5.1 secs

     total energy              =    -500.64709411 Ry
     estimated scf accuracy    <       1.82220021 Ry

     iteration #  2     ecut=    30.00 Ry     beta= 0.50
     Davidson diagonalization with overlap
     ethr =  7.12E-04,  avg # of iterations =  4.0

     total cpu time spent up to now is        5.2 secs

     total energy              =    -499.85521435 Ry
     estimated scf accuracy    <      10.52869796 Ry

     iteration #  3     ecut=    30.00 Ry     beta= 0.50
     Davidson diagonalization with overlap
     ethr =  7.12E-04,  avg # of iterations =  4.0

     total cpu time spent up to now is        5.4 secs

     total energy              =    -500.82132877 Ry
     estimated scf accuracy    <       3.12323585 Ry

     iteration #  4     ecut=    30.00 Ry     beta= 0.50
     Davidson diagonalization with overlap
     ethr =  7.12E-04,  avg # of iterations =  2.0

     total cpu time spent up to now is        5.5 secs

     total energy              =    -501.02910979 Ry
     estimated scf accuracy    <       0.86818338 Ry

     iteration #  5     ecut=    30.00 Ry     beta= 0.50
     Davidson diagonalization with overlap
     ethr =  3.39E-04,  avg # of iterations =  2.0

     total cpu time spent up to now is        5.6 secs

     total energy              =    -501.07061326 Ry
     estimated scf accuracy    <       0.67821483 Ry

     iteration #  6     ecut=    30.00 Ry     beta= 0.50
     Davidson diagonalization with overlap
     ethr =  2.65E-04,  avg # of iterations =  2.0

     total cpu time spent up to now is        5.6 secs

     total energy              =    -501.12684242 Ry
     estimated scf accuracy    <       0.15252391 Ry

     iteration #  7     ecut=    30.00 Ry     beta= 0.50
     Davidson diagonalization with overlap
     ethr =  5.96E-05,  avg # of iterations =  2.0

     total cpu time spent up to now is        5.7 secs

     total energy              =    -501.13905818 Ry
     estimated scf accuracy    <       0.08931618 Ry

     iteration #  8     ecut=    30.00 Ry     beta= 0.50
     Davidson diagonalization with overlap
     ethr =  3.49E-05,  avg # of iterations =  2.0

     total cpu time spent up to now is        5.8 secs

     total energy              =    -501.14744161 Ry
     estimated scf accuracy    <       0.01443344 Ry

     iteration #  9     ecut=    30.00 Ry     beta= 0.50
     Davidson diagonalization with overlap
     ethr =  5.64E-06,  avg # of iterations = 16.0

     total cpu time spent up to now is        6.0 secs

     total energy              =    -501.14952807 Ry
     estimated scf accuracy    <       0.00261128 Ry

     iteration # 10     ecut=    30.00 Ry     beta= 0.50
     Davidson diagonalization with overlap
     ethr =  1.02E-06,  avg # of iterations =  6.0

     total cpu time spent up to now is        6.2 secs

     total energy              =    -501.14979190 Ry
     estimated scf accuracy    <       0.00130840 Ry

     iteration # 11     ecut=    30.00 Ry     beta= 0.50
     Davidson diagonalization with overlap
     ethr =  5.11E-07,  avg # of iterations =  3.0

     total cpu time spent up to now is        6.3 secs

     total energy              =    -501.14985149 Ry
     estimated scf accuracy    <       0.00158883 Ry

     iteration # 12     ecut=    30.00 Ry     beta= 0.50
     Davidson diagonalization with overlap
     ethr =  5.11E-07,  avg # of iterations =  2.0

     total cpu time spent up to now is        6.4 secs

     total energy              =    -501.14997836 Ry
     estimated scf accuracy    <       0.00034020 Ry

     iteration # 13     ecut=    30.00 Ry     beta= 0.50
     Davidson diagonalization with overlap
     ethr =  1.33E-07,  avg # of iterations =  2.0

     total cpu time spent up to now is        6.5 secs

     total energy              =    -501.15000702 Ry
     estimated scf accuracy    <       0.00023364 Ry

     iteration # 14     ecut=    30.00 Ry     beta= 0.50
     Davidson diagonalization with overlap
     ethr =  9.13E-08,  avg # of iterations =  2.0

     total cpu time spent up to now is        6.6 secs

     total energy              =    -501.15002629 Ry
     estimated scf accuracy    <       0.00003386 Ry

     iteration # 15     ecut=    30.00 Ry     beta= 0.50
     Davidson diagonalization with overlap
     ethr =  1.32E-08,  avg # of iterations =  3.0

     total cpu time spent up to now is        6.7 secs

     total energy              =    -501.15002851 Ry
     estimated scf accuracy    <       0.00004604 Ry

     iteration # 16     ecut=    30.00 Ry     beta= 0.50
     Davidson diagonalization with overlap
     ethr =  1.32E-08,  avg # of iterations =  2.0

     total cpu time spent up to now is        6.8 secs

     total energy              =    -501.15003145 Ry
     estimated scf accuracy    <       0.00000950 Ry

     iteration # 17     ecut=    30.00 Ry     beta= 0.50
     Davidson diagonalization with overlap
     ethr =  3.71E-09,  avg # of iterations =  3.0

     total cpu time spent up to now is        6.9 secs

     total energy              =    -501.15003237 Ry
     estimated scf accuracy    <       0.00001347 Ry

     iteration # 18     ecut=    30.00 Ry     beta= 0.50
     Davidson diagonalization with overlap
     ethr =  3.71E-09,  avg # of iterations =  2.0

     total cpu time spent up to now is        6.9 secs

     End of self-consistent calculation

          k = 0.0000 0.0000 0.0000 ( 11492 PWs)   bands (ev):

    -5.9448  -5.1912  -5.0073  -4.8783  -4.6934  -4.4348  -4.2804  -4.0509
    -3.8495  -3.8046  -3.6761  -3.5556  -3.4782  -3.4031  -3.1828  -3.1313
    -2.9810  -2.8278  -2.7577  -2.6501  -2.4903  -2.3198  -2.1791  -2.0681
    -1.8747  -1.6793  -1.3464  -1.3363  -1.2748  -1.0474  -0.8831  -0.7805
    -0.6569  -0.5417  -0.5095  -0.4882  -0.4253  -0.2914  -0.1466  -0.0770
    -0.0042   0.0643   0.1379   0.1637   0.2893   0.4375   0.5895   0.6775
     0.8617   0.9083   1.0039   1.1582   1.1836   1.2664   1.3434   1.4023
     1.5541   1.6724   1.7200   1.8513   1.9855   2.0166   2.1261   2.1839
     2.3497   2.4120   2.5515   2.6128   2.6725   2.7468   2.7735   2.8353
     2.9522   3.0558   3.1425   3.2314   3.2882   3.3454   3.4088   3.5143
     3.6289   3.7138   3.9377   3.9891   4.1344   4.2070   4.2881   4.3305
     4.3926   4.4950   4.5830   4.6640   4.7378   4.8319   4.8758   4.8969
     4.9889   5.0381   5.0625   5.1403   5.2141   5.2690   5.3165   5.3883
     5.4413   5.4650   5.5243   5.6026   5.6698   5.7130   5.8027   5.8685
     5.9738   6.0581   6.1016   6.1101   6.2171   6.2451   6.3408   6.3647
     6.4490   6.4949   6.5063   6.5684   6.6577   6.6935   6.7241   6.8220
     6.9041   6.9355   6.9656   7.0046   7.1004   7.1511   7.2220   7.2549
     7.2786   7.4627   7.5249   7.6113   7.6840   7.7204   7.8424   7.8905
     7.9593   8.0027   8.0175   8.1014   8.2269   8.2589   8.3414   8.3951
     8.4009   8.5331

     the Fermi energy is     6.8417 ev

!    total energy              =    -501.15003305 Ry
     estimated scf accuracy    <       0.00000053 Ry
     smearing contrib. (-TS)   =      -0.15660806 Ry
     internal energy E=F+TS    =    -500.99342499 Ry

     The total energy is F=E-TS. E is the sum of the following terms:
     one-electron contribution =     154.09951125 Ry
     hartree contribution      =      38.80915862 Ry
     xc contribution           =    -151.74826626 Ry
     ewald contribution        =    -542.15382861 Ry

     convergence has been achieved in  18 iterations

     Forces acting on atoms (cartesian axes, Ry/au):

     atom    1 type  1   force =    -0.05009595   -0.01291981    0.02696083
     atom    2 type  1   force =     0.01795391    0.02816454    0.02706537
     atom    3 type  1   force =     0.02607414   -0.01178586   -0.03159943
     atom    4 type  1   force =    -0.01472820   -0.00407472   -0.02168952
     atom    5 type  1   force =     0.00370704    0.05868342    0.00389781
     atom    6 type  1   force =    -0.04749139    0.00115787   -0.01161196
     atom    7 type  1   force =    -0.01086006   -0.02654505   -0.04326476
     atom    8 type  1   force =     0.04863525    0.00531429    0.02604937
     atom    9 type  1   force =     0.07470222   -0.05648034   -0.00042800
     atom   10 type  1   force =     0.01820259   -0.00285039   -0.01997691
     atom   11 type  1   force =    -0.08727711    0.08377047   -0.01888558
     atom   12 type  1   force =     0.00093723    0.05334053    0.02070556
     atom   13 type  1   force =    -0.05165574   -0.01832653   -0.02414423
     atom   14 type  1   force =    -0.01004037   -0.04147834   -0.06438028
     atom   15 type  1   force =     0.04765237    0.03650245   -0.02625281
     atom   16 type  1   force =    -0.00388185    0.00436266   -0.00772885
     atom   17 type  1   force =     0.01212863    0.03070256    0.04361296
     atom   18 type  1   force =     0.03270486    0.01759811    0.01636478
     atom   19 type  1   force =     0.00247608   -0.01142772   -0.02398918
     atom   20 type  1   force =    -0.04678873    0.01720139   -0.02553359
     atom   21 type  1   force =    -0.00305214   -0.00141492    0.01508882
     atom   22 type  1   force =    -0.00000589    0.01672841    0.07251780
     atom   23 type  1   force =     0.02364344    0.05620998    0.02850952
     atom   24 type  1   force =     0.01144221    0.00107922    0.00469020
     atom   25 type  1   force =     0.00325368    0.01760269    0.00046318
     atom   26 type  1   force =     0.01709809    0.03192947   -0.02936736
     atom   27 type  1   force =    -0.03280992    0.01855005    0.00455884
     atom   28 type  1   force =    -0.04441767    0.05772271   -0.02777524
     atom   29 type  1   force =     0.02947657    0.05770572   -0.00561219
     atom   30 type  1   force =     0.01080702   -0.03870635   -0.02434210
     atom   31 type  1   force =     0.00865140    0.02766486   -0.02184855
     atom   32 type  1   force =     0.04875822   -0.00082962    0.01423551
     atom   33 type  1   force =     0.00087689   -0.00299660    0.01255551
     atom   34 type  1   force =    -0.03397810   -0.01536377    0.02757841
     atom   35 type  1   force =    -0.03637076    0.01443989    0.00801312
     atom   36 type  1   force =     0.04748772   -0.06483045    0.00966194
     atom   37 type  1   force =    -0.04059137   -0.01979000   -0.02531359
     atom   38 type  1   force =     0.00831971    0.05819865    0.01334750
     atom   39 type  1   force =     0.00015117   -0.00673077    0.00725423
     atom   40 type  1   force =     0.05631027    0.03125236    0.03118525
     atom   41 type  1   force =     0.01181644   -0.00972755    0.04274958
     atom   42 type  1   force =     0.02474570   -0.00536878   -0.01313689
     atom   43 type  1   force =    -0.05581470   -0.02261888    0.00729840
     atom   44 type  1   force =    -0.01059605   -0.00342730    0.03360966
     atom   45 type  1   force =    -0.00133662   -0.06365218   -0.00186877
     atom   46 type  1   force =     0.00915768    0.01485386   -0.00497088
     atom   47 type  1   force =    -0.00153426   -0.04963973    0.00030575
     atom   48 type  1   force =     0.00897830    0.02708491    0.03581511
     atom   49 type  1   force =    -0.05576018   -0.02082244    0.00410879
     atom   50 type  1   force =     0.00387104   -0.03363816    0.00897213
     atom   51 type  1   force =     0.10716208   -0.05686487    0.01233903
     atom   52 type  1   force =    -0.04335026   -0.01428690   -0.05337611
     atom   53 type  1   force =    -0.00182914   -0.03523422   -0.02260994
     atom   54 type  1   force =     0.01367701   -0.02995140   -0.04354401
     atom   55 type  1   force =    -0.04309291   -0.04779288    0.07830435
     atom   56 type  1   force =    -0.03816568    0.00395672   -0.00127697
     atom   57 type  1   force =    -0.01917530   -0.00743090    0.02249917
     atom   58 type  1   force =     0.01464239    0.02201652   -0.02203653
     atom   59 type  1   force =     0.01513947   -0.00373533    0.02087113
     atom   60 type  1   force =    -0.03728033   -0.03416943   -0.02274877
     atom   61 type  1   force =     0.01681279    0.00457589   -0.01974056
     atom   62 type  1   force =     0.01696651   -0.02432543   -0.01221659
     atom   63 type  1   force =     0.02017938   -0.01613891   -0.01021330
     atom   64 type  1   force =     0.00738119    0.01700634    0.00029384

     Total force =     0.434687     Total SCF correction =     0.001326


     Computing stress (Cartesian axis) and pressure

          total   stress  (Ry/bohr**3)                   (kbar)     P=        5.11
  -0.00003352  -0.00000989   0.00005316           -4.93       -1.46        7.82
  -0.00000989   0.00013115  -0.00000267           -1.46       19.29       -0.39
   0.00005316  -0.00000267   0.00000656            7.82       -0.39        0.97

 
     init_run     :      1.14s CPU      4.79s WALL (       1 calls)
     electrons    :      1.93s CPU      2.08s WALL (       1 calls)
     forces       :      0.04s CPU      0.04s WALL (       1 calls)
     stress       :      0.16s CPU      0.16s WALL (       1 calls)

     Called by init_run:
     wfcinit      :      0.59s CPU      4.06s WALL (       1 calls)
                                        4.06s GPU  (       1 calls)
     potinit      :      0.05s CPU      0.14s WALL (       1 calls)
     hinit0       :      0.47s CPU      0.50s WALL (       1 calls)

     Called by electrons:
     c_bands      :      1.13s CPU      1.19s WALL (      19 calls)
     sum_band     :      0.39s CPU      0.44s WALL (      19 calls)
     v_of_rho     :      0.19s CPU      0.29s WALL (      19 calls)
     mix_rho      :      0.17s CPU      0.20s WALL (      19 calls)

     Called by c_bands:
     init_us_2    :      0.07s CPU      0.07s WALL (      39 calls)
     init_us_2:gp :      0.07s CPU      0.07s WALL (      39 calls)
     regterg      :      0.97s CPU      1.03s WALL (      19 calls)

     Called by *egterg:
     rdiaghg      :      0.41s CPU      1.13s WALL (      84 calls)
                                        1.11s GPU  (      84 calls)
     h_psi        :      0.97s CPU      3.76s WALL (      86 calls)
                                        3.76s GPU  (      86 calls)
     g_psi        :      0.00s CPU      0.00s WALL (      66 calls)
                                        0.00s GPU  (      66 calls)

     Called by h_psi:
     h_psi:calbec :      0.54s CPU      3.25s WALL (      86 calls)
                                        3.25s GPU  (      86 calls)
     vloc_psi     :      0.38s CPU      0.45s WALL (      86 calls)
                                        0.45s GPU  (      86 calls)
     add_vuspsi   :      0.03s CPU      0.05s WALL (      86 calls)
                                        0.05s GPU  (      86 calls)

     General routines
     calbec       :      0.55s CPU      3.26s WALL (      91 calls)
     fft          :      0.63s CPU      0.76s WALL (     159 calls)
                                        0.13s GPU  (     101 calls)
     ffts         :      0.05s CPU      0.06s WALL (      19 calls)
     fftw         :      0.45s CPU      0.60s WALL (    1997 calls)
                                        0.52s GPU  (    1997 calls)
 
     Parallel routines
 
     PWSCF        :      3.30s CPU      7.16s WALL

 
   This run was terminated on:  14:16:43  10May2023            

=------------------------------------------------------------------------------=
   JOB DONE.
=------------------------------------------------------------------------------=
