An instance of this daemon is already running

     Program PWSCF v.7.1 starts on 10May2023 at 14:23:39 

     This program is part of the open-source Quantum ESPRESSO suite
     for quantum simulation of materials; please cite
         "P. Giannozzi et al., J. Phys.:Condens. Matter 21 395502 (2009);
         "P. Giannozzi et al., J. Phys.:Condens. Matter 29 465901 (2017);
         "P. Giannozzi et al., J. Chem. Phys. 152 154105 (2020);
          URL http://www.quantum-espresso.org", 
     in publications or presentations arising from this work. More details at
     http://www.quantum-espresso.org/quote

     Parallel version (MPI & OpenMP), running on       4 processor cores
     Number of MPI processes:                 4
     Threads/MPI process:                     1

     MPI processes distributed on     1 nodes
     752731 MiB available memory on the printing compute node when the environment starts
 
     Reading input from pw-si-46.in
Warning: card &CELL ignored
Warning: card / ignored

     Current dimensions of program PWSCF are:
     Max number of different atomic species (ntypx) = 10
     Max number of k-points (npk) =  40000
     Max angular momentum in pseudopotentials (lmaxx) =  4

     IMPORTANT: XC functional enforced from input :
     Exchange-correlation= PBE
                           (   1   4   3   4   0   0   0)
     Any further DFT definition will be discarded
     Please, verify this is what you really want


     gamma-point specific algorithms are used
 
     K-points division:     npool     =       2
     R & G space division:  proc/nbgrp/npool/nimage =       2
     Subspace diagonalization in iterative solution of the eigenvalue problem:
     a serial algorithm will be used

     Message from routine divide_et_impera:
     suboptimal parallelization: some nodes have no k-points
 
     Parallelization info
     --------------------
     sticks:   dense  smooth     PW     G-vecs:    dense   smooth      PW
     Min        2345    2345    614               120688   120688   16265
     Max        2348    2348    615               120689   120689   16266
     Sum        4693    4693   1229               241377   241377   32531
 
     Using Slab Decomposition
 


     bravais-lattice index     =            0
     lattice parameter (alat)  =      22.1505  a.u.
     unit-cell volume          =   10867.9934 (a.u.)^3
     number of atoms/cell      =           64
     number of atomic types    =            1
     number of electrons       =       256.00
     number of Kohn-Sham states=          154
     kinetic-energy cutoff     =      30.0000  Ry
     charge density cutoff     =     120.0000  Ry
     scf convergence threshold =      1.0E-06
     mixing beta               =       0.5000
     number of iterations used =            8  plain     mixing
     Exchange-correlation= PBE
                           (   1   4   3   4   0   0   0)

     GPU acceleration is ACTIVE.
     GPU-aware MPI enabled

     Message from routine print_cuda_info:
     High GPU oversubscription detected. Are you sure this is what you want?

     celldm(1)=  22.150479  celldm(2)=   0.000000  celldm(3)=   0.000000
     celldm(4)=   0.000000  celldm(5)=   0.000000  celldm(6)=   0.000000

     crystal axes: (cart. coord. in units of alat)
               a(1) = (   1.000000   0.000000   0.000000 )  
               a(2) = (   0.000000   1.000000   0.000000 )  
               a(3) = (   0.000000   0.000000   1.000000 )  

     reciprocal axes: (cart. coord. in units 2 pi/alat)
               b(1) = (  1.000000  0.000000  0.000000 )  
               b(2) = (  0.000000  1.000000  0.000000 )  
               b(3) = (  0.000000  0.000000  1.000000 )  


     PseudoPot. # 1 for Si read from file:
     /home/ppiaggi/pseudos/Si_ONCV_PBE_sr.upf
     MD5 check sum: 8553c464762ac42b85b1eed164b4d029
     Pseudo is Norm-conserving, Zval =  4.0
     Generated using ONCVPSP code by D. R. Hamann
     Using radial grid of 1510 points,  4 beta functions with: 
                l(1) =   0
                l(2) =   0
                l(3) =   1
                l(4) =   1

     atomic species   valence    mass     pseudopotential
        Si             4.00    28.08500     Si( 1.00)

     No symmetry found



   Cartesian axes

     site n.     atom                  positions (alat units)
         1           Si  tau(   1) = (   0.6178620   0.1939640   0.6958920  )
         2           Si  tau(   2) = (   0.8675930   0.8378460   0.3850340  )
         3           Si  tau(   3) = (   0.0360712   0.9665290   0.4239080  )
         4           Si  tau(   4) = (   0.8452100   0.5158890   0.4603040  )
         5           Si  tau(   5) = (   0.1473950   0.0700922   0.2738540  )
         6           Si  tau(   6) = (   0.6140840   0.8567370   0.0919627  )
         7           Si  tau(   7) = (   0.3029590   0.7780720   0.3562640  )
         8           Si  tau(   8) = (   0.3681220   0.2140400   0.9985670  )
         9           Si  tau(   9) = (   0.2185000   0.9081950   0.8668140  )
        10           Si  tau(  10) = (   0.8724950   0.8758420   0.7612860  )
        11           Si  tau(  11) = (   0.9488870   0.7068750   0.6674010  )
        12           Si  tau(  12) = (   0.6732750   0.5515560   0.4651890  )
        13           Si  tau(  13) = (   0.7988980   0.1218150   0.1258640  )
        14           Si  tau(  14) = (   0.8151450   0.2575180   0.6159250  )
        15           Si  tau(  15) = (   0.8387630   0.3471480   0.7753550  )
        16           Si  tau(  16) = (   0.3160710   0.0935050   0.4854300  )
        17           Si  tau(  17) = (   0.5208470   0.0377546   0.3764210  )
        18           Si  tau(  18) = (   0.6509670   0.4499320   0.1130910  )
        19           Si  tau(  19) = (   0.5058720   0.8224000   0.6421670  )
        20           Si  tau(  20) = (   0.4661680   0.7441540   0.0351902  )
        21           Si  tau(  21) = (   0.6170670   0.9951330   0.5790280  )
        22           Si  tau(  22) = (   0.0851435   0.0601431   0.8633680  )
        23           Si  tau(  23) = (   0.3076890   0.6721940   0.1820920  )
        24           Si  tau(  24) = (   0.1730920   0.2229100   0.5084190  )
        25           Si  tau(  25) = (   0.4035040   0.3045940   0.1960410  )
        26           Si  tau(  26) = (   0.0847463   0.5560450   0.6512280  )
        27           Si  tau(  27) = (   0.1393340   0.9786640   0.0380706  )
        28           Si  tau(  28) = (   0.4944130   0.7571690   0.2349070  )
        29           Si  tau(  29) = (   0.6379800   0.0004457   0.2202950  )
        30           Si  tau(  30) = (   0.7790940   0.0287033   0.6839870  )
        31           Si  tau(  31) = (   0.4666320   0.1921680   0.8323250  )
        32           Si  tau(  32) = (   0.2370190   0.2936410   0.3038830  )
        33           Si  tau(  33) = (   0.3828230   0.0157470   0.6438830  )
        34           Si  tau(  34) = (   0.6288260   0.0111103   0.0042717  )
        35           Si  tau(  35) = (   0.9211340   0.4562520   0.8936930  )
        36           Si  tau(  36) = (   0.5335140   0.3318020   0.9353320  )
        37           Si  tau(  37) = (   0.4479590   0.9861450   0.8300450  )
        38           Si  tau(  38) = (   0.5513910   0.8110190   0.8690440  )
        39           Si  tau(  39) = (   0.9518170   0.4172590   0.6026480  )
        40           Si  tau(  40) = (   0.9075830   0.4254460   0.2899330  )
        41           Si  tau(  41) = (   0.2364780   0.9338560   0.4408120  )
        42           Si  tau(  42) = (   0.8031870   0.3218030   0.1542670  )
        43           Si  tau(  43) = (   0.2326260   0.3541930   0.9217020  )
        44           Si  tau(  44) = (   0.1286010   0.4742410   0.0400187  )
        45           Si  tau(  45) = (   0.2864450   0.4740740   0.2122290  )
        46           Si  tau(  46) = (   0.1896440   0.7809490   0.5392590  )
        47           Si  tau(  47) = (   0.7203800   0.3833640   0.9212100  )
        48           Si  tau(  48) = (   0.1631350   0.3686640   0.6921220  )
        49           Si  tau(  49) = (   0.8690240   0.2314110   0.3071260  )
        50           Si  tau(  50) = (   0.6204350   0.5935110   0.2622590  )
        51           Si  tau(  51) = (   0.1352040   0.5071960   0.8419660  )
        52           Si  tau(  52) = (   0.9661450   0.3854410   0.0835972  )
        53           Si  tau(  53) = (   0.3514920   0.1170210   0.2857030  )
        54           Si  tau(  54) = (   0.2825520   0.8165310   0.0227317  )
        55           Si  tau(  55) = (   0.9960190   0.3156610   0.4358460  )
        56           Si  tau(  56) = (   0.1080410   0.1604680   0.6907960  )
        57           Si  tau(  57) = (   0.6647910   0.7426430   0.3975570  )
        58           Si  tau(  58) = (   0.6872810   0.8160400   0.7230610  )
        59           Si  tau(  59) = (   0.2910330   0.8270130   0.7086250  )
        60           Si  tau(  60) = (   0.8055000   0.7018040   0.5261850  )
        61           Si  tau(  61) = (   0.2265870   0.6951040   0.8714620  )
        62           Si  tau(  62) = (   0.0262310   0.9086480   0.6284290  )
        63           Si  tau(  63) = (   0.0021601   0.1762150   0.1518710  )
        64           Si  tau(  64) = (   0.4632860   0.5066120   0.1806490  )

     number of k points=     1  Fermi-Dirac smearing, width (Ry)=  0.0100
                       cart. coord. in units 2pi/alat
        k(    1) = (   0.0000000   0.0000000   0.0000000), wk =   2.0000000

     Dense  grid:   120689 G-vectors     FFT dimensions: (  80,  80,  80)

     Estimated max dynamical RAM per process >     193.17 MB

     Estimated total dynamical RAM >     743.22 MB

     Initial potential from superposition of free atoms

     starting charge     255.9608, renormalised to     256.0000
     Starting wfcs are  256 randomized atomic wfcs

     total cpu time spent up to now is        5.1 secs

     Self-consistent Calculation

     iteration #  1     ecut=    30.00 Ry     beta= 0.50
     Davidson diagonalization with overlap
     ethr =  1.00E-02,  avg # of iterations =  3.0

     Threshold (ethr) on eigenvalues was too large:
     Diagonalizing with lowered threshold

     Davidson diagonalization with overlap
     ethr =  7.45E-04,  avg # of iterations =  4.0

     total cpu time spent up to now is        5.4 secs

     total energy              =    -499.60537525 Ry
     estimated scf accuracy    <       2.57984218 Ry

     iteration #  2     ecut=    30.00 Ry     beta= 0.50
     Davidson diagonalization with overlap
     ethr =  1.01E-03,  avg # of iterations =  3.0

     total cpu time spent up to now is        5.6 secs

     total energy              =    -499.31565927 Ry
     estimated scf accuracy    <       4.89837660 Ry

     iteration #  3     ecut=    30.00 Ry     beta= 0.50
     Davidson diagonalization with overlap
     ethr =  1.01E-03,  avg # of iterations =  3.0

     total cpu time spent up to now is        5.7 secs

     total energy              =    -499.79837348 Ry
     estimated scf accuracy    <       4.71471409 Ry

     iteration #  4     ecut=    30.00 Ry     beta= 0.50
     Davidson diagonalization with overlap
     ethr =  1.01E-03,  avg # of iterations =  2.0

     total cpu time spent up to now is        5.8 secs

     total energy              =    -500.12273293 Ry
     estimated scf accuracy    <       1.28598704 Ry

     iteration #  5     ecut=    30.00 Ry     beta= 0.50
     Davidson diagonalization with overlap
     ethr =  5.02E-04,  avg # of iterations =  2.0

     total cpu time spent up to now is        5.9 secs

     total energy              =    -500.22020005 Ry
     estimated scf accuracy    <       0.48455593 Ry

     iteration #  6     ecut=    30.00 Ry     beta= 0.50
     Davidson diagonalization with overlap
     ethr =  1.89E-04,  avg # of iterations =  2.0

     total cpu time spent up to now is        6.1 secs

     total energy              =    -500.26269131 Ry
     estimated scf accuracy    <       0.33531005 Ry

     iteration #  7     ecut=    30.00 Ry     beta= 0.50
     Davidson diagonalization with overlap
     ethr =  1.31E-04,  avg # of iterations =  1.0

     total cpu time spent up to now is        6.2 secs

     total energy              =    -500.28699552 Ry
     estimated scf accuracy    <       0.04038350 Ry

     iteration #  8     ecut=    30.00 Ry     beta= 0.50
     Davidson diagonalization with overlap
     c_bands:  1 eigenvalues not converged
     ethr =  1.58E-05,  avg # of iterations = 20.0

     total cpu time spent up to now is        6.4 secs

     total energy              =    -500.29203870 Ry
     estimated scf accuracy    <       0.02710649 Ry

     iteration #  9     ecut=    30.00 Ry     beta= 0.50
     Davidson diagonalization with overlap
     ethr =  1.06E-05,  avg # of iterations =  2.0

     total cpu time spent up to now is        6.5 secs

     total energy              =    -500.29415222 Ry
     estimated scf accuracy    <       0.01059079 Ry

     iteration # 10     ecut=    30.00 Ry     beta= 0.50
     Davidson diagonalization with overlap
     ethr =  4.14E-06,  avg # of iterations =  9.0

     total cpu time spent up to now is        6.7 secs

     total energy              =    -500.29487566 Ry
     estimated scf accuracy    <       0.01035851 Ry

     iteration # 11     ecut=    30.00 Ry     beta= 0.50
     Davidson diagonalization with overlap
     ethr =  4.05E-06,  avg # of iterations =  2.0

     total cpu time spent up to now is        6.8 secs

     total energy              =    -500.29564284 Ry
     estimated scf accuracy    <       0.00075654 Ry

     iteration # 12     ecut=    30.00 Ry     beta= 0.50
     Davidson diagonalization with overlap
     c_bands:  1 eigenvalues not converged
     ethr =  2.96E-07,  avg # of iterations = 20.0

     total cpu time spent up to now is        7.1 secs

     total energy              =    -500.29570234 Ry
     estimated scf accuracy    <       0.00107370 Ry

     iteration # 13     ecut=    30.00 Ry     beta= 0.50
     Davidson diagonalization with overlap
     ethr =  2.96E-07,  avg # of iterations =  6.0

     total cpu time spent up to now is        7.2 secs

     total energy              =    -500.29578126 Ry
     estimated scf accuracy    <       0.00059618 Ry

     iteration # 14     ecut=    30.00 Ry     beta= 0.50
     Davidson diagonalization with overlap
     ethr =  2.33E-07,  avg # of iterations =  2.0

     total cpu time spent up to now is        7.4 secs

     total energy              =    -500.29582500 Ry
     estimated scf accuracy    <       0.00020539 Ry

     iteration # 15     ecut=    30.00 Ry     beta= 0.50
     Davidson diagonalization with overlap
     ethr =  8.02E-08,  avg # of iterations =  2.0

     total cpu time spent up to now is        7.5 secs

     total energy              =    -500.29583826 Ry
     estimated scf accuracy    <       0.00010375 Ry

     iteration # 16     ecut=    30.00 Ry     beta= 0.50
     Davidson diagonalization with overlap
     ethr =  4.05E-08,  avg # of iterations =  1.0

     total cpu time spent up to now is        7.6 secs

     total energy              =    -500.29584791 Ry
     estimated scf accuracy    <       0.00001221 Ry

     iteration # 17     ecut=    30.00 Ry     beta= 0.50
     Davidson diagonalization with overlap
     ethr =  4.77E-09,  avg # of iterations =  4.0

     total cpu time spent up to now is        7.8 secs

     total energy              =    -500.29584895 Ry
     estimated scf accuracy    <       0.00001128 Ry

     iteration # 18     ecut=    30.00 Ry     beta= 0.50
     Davidson diagonalization with overlap
     ethr =  4.41E-09,  avg # of iterations =  2.0

     total cpu time spent up to now is        7.9 secs

     total energy              =    -500.29584997 Ry
     estimated scf accuracy    <       0.00000662 Ry

     iteration # 19     ecut=    30.00 Ry     beta= 0.50
     Davidson diagonalization with overlap
     ethr =  2.59E-09,  avg # of iterations =  2.0

     total cpu time spent up to now is        8.0 secs

     total energy              =    -500.29585029 Ry
     estimated scf accuracy    <       0.00000146 Ry

     iteration # 20     ecut=    30.00 Ry     beta= 0.50
     Davidson diagonalization with overlap
     ethr =  5.72E-10,  avg # of iterations =  3.0

     total cpu time spent up to now is        8.1 secs

     total energy              =    -500.29585045 Ry
     estimated scf accuracy    <       0.00000165 Ry

     iteration # 21     ecut=    30.00 Ry     beta= 0.50
     Davidson diagonalization with overlap
     ethr =  5.72E-10,  avg # of iterations =  2.0

     total cpu time spent up to now is        8.2 secs

     End of self-consistent calculation

          k = 0.0000 0.0000 0.0000 ( 15048 PWs)   bands (ev):

    -8.6409  -8.3341  -7.9720  -7.9040  -7.7603  -7.6966  -7.3466  -7.2709
    -6.9839  -6.8814  -6.8704  -6.6042  -6.5030  -6.1768  -6.1500  -5.8365
    -5.7147  -5.5740  -5.5247  -5.2774  -5.1869  -5.0686  -4.9159  -4.8287
    -4.6843  -4.5935  -4.4881  -4.2974  -4.2253  -4.0276  -4.0116  -3.7818
    -3.7524  -3.5275  -3.3520  -3.2929  -3.1838  -2.9868  -2.9463  -2.8431
    -2.7829  -2.5634  -2.4684  -2.4322  -2.3707  -2.0935  -2.0130  -1.9757
    -1.8489  -1.6950  -1.6657  -1.4447  -1.3359  -1.2191  -1.0801  -1.0453
    -0.9032  -0.8111  -0.6705  -0.6029  -0.4323  -0.3281  -0.2506  -0.1543
    -0.1251  -0.0289   0.0363   0.1692   0.1933   0.3139   0.3588   0.4382
     0.4843   0.5066   0.6496   0.7334   0.7537   0.8584   0.9613   0.9772
     1.1100   1.1402   1.2007   1.2946   1.3558   1.4428   1.4979   1.5394
     1.6378   1.6927   1.7478   1.8043   1.8130   1.9222   1.9479   2.0438
     2.1372   2.1588   2.2065   2.2600   2.3229   2.4121   2.4454   2.5004
     2.6274   2.7055   2.7315   2.7903   2.8550   2.8934   2.9805   3.0396
     3.1470   3.1611   3.2940   3.3583   3.4508   3.5451   3.6219   3.6723
     3.6863   3.7802   3.8436   3.9426   3.9648   4.0108   4.1047   4.1732
     4.1880   4.2317   4.2768   4.3418   4.4308   4.4877   4.5266   4.6139
     4.7499   4.7714   4.8149   4.8655   4.9550   5.0293   5.0575   5.0919
     5.1659   5.1993   5.2573   5.2992   5.3986   5.4388   5.5526   5.5950
     5.6358   5.7251

     the Fermi energy is     4.1661 ev

!    total energy              =    -500.29585008 Ry
     estimated scf accuracy    <       0.00000066 Ry
     smearing contrib. (-TS)   =      -0.15341216 Ry
     internal energy E=F+TS    =    -500.14243792 Ry

     The total energy is F=E-TS. E is the sum of the following terms:
     one-electron contribution =    -104.12264286 Ry
     hartree contribution      =     141.50660028 Ry
     xc contribution           =    -150.90393339 Ry
     ewald contribution        =    -386.62246194 Ry

     convergence has been achieved in  21 iterations

     Forces acting on atoms (cartesian axes, Ry/au):

     atom    1 type  1   force =     0.01938725   -0.04203958   -0.01386986
     atom    2 type  1   force =    -0.01355504    0.00300932   -0.00941667
     atom    3 type  1   force =    -0.03387119   -0.01137722    0.00342897
     atom    4 type  1   force =     0.15143146   -0.06165232   -0.00634133
     atom    5 type  1   force =    -0.02463879    0.02490901   -0.03032316
     atom    6 type  1   force =     0.03060565   -0.10622209    0.06389284
     atom    7 type  1   force =     0.02992605   -0.04243339   -0.00699156
     atom    8 type  1   force =    -0.03075919    0.01668458    0.04818313
     atom    9 type  1   force =    -0.00439717    0.04061630   -0.06047183
     atom   10 type  1   force =     0.05604677   -0.00034548    0.03909467
     atom   11 type  1   force =     0.00863607    0.02609834    0.00995586
     atom   12 type  1   force =    -0.17795000    0.00837177    0.00495253
     atom   13 type  1   force =    -0.02616552   -0.03737864    0.00674109
     atom   14 type  1   force =    -0.02507288   -0.07018528   -0.05163994
     atom   15 type  1   force =     0.00294289   -0.03447935   -0.01916120
     atom   16 type  1   force =     0.04324068    0.07866111   -0.02094089
     atom   17 type  1   force =    -0.01714937   -0.01243501    0.01630042
     atom   18 type  1   force =    -0.00500515   -0.00248043   -0.02444537
     atom   19 type  1   force =    -0.03113362    0.02126123   -0.01413236
     atom   20 type  1   force =    -0.02797403   -0.05032610   -0.04525967
     atom   21 type  1   force =    -0.04981392    0.00119433   -0.02639310
     atom   22 type  1   force =    -0.01764856   -0.01101646    0.00699734
     atom   23 type  1   force =    -0.02432646    0.03137258   -0.01381672
     atom   24 type  1   force =    -0.03301812    0.03624901   -0.01049063
     atom   25 type  1   force =     0.03556402   -0.03099880   -0.02389818
     atom   26 type  1   force =     0.02963472    0.03493550   -0.01716315
     atom   27 type  1   force =     0.00064445    0.02445703    0.05944124
     atom   28 type  1   force =     0.00412100    0.01902988    0.07162923
     atom   29 type  1   force =     0.04085877    0.01810283    0.00427273
     atom   30 type  1   force =    -0.00188175    0.05463522   -0.01463691
     atom   31 type  1   force =     0.00919647   -0.05740242   -0.06887659
     atom   32 type  1   force =    -0.04408161   -0.00741674    0.02699643
     atom   33 type  1   force =     0.02680822   -0.03943093    0.03007682
     atom   34 type  1   force =     0.01043801    0.12692496   -0.07364265
     atom   35 type  1   force =     0.06853322    0.06039258    0.05087723
     atom   36 type  1   force =     0.00801815    0.05868401    0.04682537
     atom   37 type  1   force =     0.00829718   -0.01473064    0.03240492
     atom   38 type  1   force =     0.00090495    0.03413968   -0.01865010
     atom   39 type  1   force =    -0.03217882    0.01101529   -0.00220381
     atom   40 type  1   force =     0.04859997    0.07138389   -0.00615873
     atom   41 type  1   force =    -0.02168482    0.01995146   -0.06082286
     atom   42 type  1   force =    -0.11567028    0.01660531   -0.06150139
     atom   43 type  1   force =     0.01809681   -0.03243016   -0.01231170
     atom   44 type  1   force =     0.05945280    0.02983899    0.03501975
     atom   45 type  1   force =    -0.12740177   -0.02800347    0.00204587
     atom   46 type  1   force =    -0.02594046   -0.07510777    0.06204499
     atom   47 type  1   force =    -0.02527052    0.02043135    0.05009477
     atom   48 type  1   force =     0.00837439   -0.06578222   -0.00759499
     atom   49 type  1   force =     0.00840438   -0.10083596    0.07141409
     atom   50 type  1   force =     0.04121764   -0.01182081    0.00225549
     atom   51 type  1   force =    -0.03916901    0.05061073    0.01007178
     atom   52 type  1   force =     0.01024308   -0.02111351   -0.00202854
     atom   53 type  1   force =     0.03835683   -0.01164281   -0.01531394
     atom   54 type  1   force =    -0.01033523   -0.02405153    0.06542178
     atom   55 type  1   force =     0.03687824   -0.02985032    0.00767016
     atom   56 type  1   force =     0.00398959    0.01347109    0.00610420
     atom   57 type  1   force =    -0.03801855    0.08294489   -0.02530973
     atom   58 type  1   force =     0.00372659    0.00519752   -0.01891446
     atom   59 type  1   force =     0.01952637   -0.03599060   -0.04791110
     atom   60 type  1   force =     0.04095204    0.02470535    0.05193573
     atom   61 type  1   force =     0.00745783    0.00222036   -0.02696728
     atom   62 type  1   force =     0.01651911   -0.00229479   -0.00744262
     atom   63 type  1   force =     0.00947829    0.00417381    0.01108284
     atom   64 type  1   force =     0.06760193   -0.00100450   -0.03218927

     Total force =     0.582690     Total SCF correction =     0.001354


     Computing stress (Cartesian axis) and pressure

          total   stress  (Ry/bohr**3)                   (kbar)     P=       21.22
   0.00013825   0.00000366  -0.00000040           20.34        0.54       -0.06
   0.00000366   0.00010943   0.00001346            0.54       16.10        1.98
  -0.00000040   0.00001346   0.00018499           -0.06        1.98       27.21

 
     init_run     :      1.31s CPU      5.02s WALL (       1 calls)
     electrons    :      2.93s CPU      3.14s WALL (       1 calls)
     forces       :      0.04s CPU      0.05s WALL (       1 calls)
     stress       :      0.20s CPU      0.20s WALL (       1 calls)

     Called by init_run:
     wfcinit      :      0.74s CPU      4.27s WALL (       1 calls)
                                        4.27s GPU  (       1 calls)
     potinit      :      0.06s CPU      0.16s WALL (       1 calls)
     hinit0       :      0.48s CPU      0.50s WALL (       1 calls)

     Called by electrons:
     c_bands      :      1.61s CPU      1.70s WALL (      22 calls)
     sum_band     :      0.63s CPU      0.69s WALL (      22 calls)
     v_of_rho     :      0.31s CPU      0.42s WALL (      22 calls)
     mix_rho      :      0.30s CPU      0.32s WALL (      22 calls)

     Called by c_bands:
     init_us_2    :      0.08s CPU      0.09s WALL (      45 calls)
     init_us_2:gp :      0.08s CPU      0.08s WALL (      45 calls)
     regterg      :      1.41s CPU      1.49s WALL (      22 calls)

     Called by *egterg:
     rdiaghg      :      0.55s CPU      1.29s WALL (     118 calls)
                                        1.26s GPU  (     118 calls)
     h_psi        :      1.35s CPU      4.19s WALL (     120 calls)
                                        4.19s GPU  (     120 calls)
     g_psi        :      0.00s CPU      0.01s WALL (      97 calls)
                                        0.00s GPU  (      97 calls)

     Called by h_psi:
     h_psi:calbec :      0.71s CPU      3.44s WALL (     120 calls)
                                        3.43s GPU  (     120 calls)
     vloc_psi     :      0.56s CPU      0.66s WALL (     120 calls)
                                        0.66s GPU  (     120 calls)
     add_vuspsi   :      0.05s CPU      0.08s WALL (     120 calls)
                                        0.08s GPU  (     120 calls)

     General routines
     calbec       :      0.71s CPU      3.44s WALL (     125 calls)
     fft          :      0.80s CPU      0.93s WALL (     183 calls)
                                        0.14s GPU  (     116 calls)
     ffts         :      0.13s CPU      0.14s WALL (      22 calls)
     fftw         :      0.65s CPU      0.84s WALL (    2342 calls)
                                        0.73s GPU  (    2342 calls)
 
     Parallel routines
 
     PWSCF        :      4.53s CPU      8.51s WALL

 
   This run was terminated on:  14:23:48  10May2023            

=------------------------------------------------------------------------------=
   JOB DONE.
=------------------------------------------------------------------------------=
