An instance of this daemon is already running

     Program PWSCF v.7.1 starts on 10May2023 at 14:21:52 

     This program is part of the open-source Quantum ESPRESSO suite
     for quantum simulation of materials; please cite
         "P. Giannozzi et al., J. Phys.:Condens. Matter 21 395502 (2009);
         "P. Giannozzi et al., J. Phys.:Condens. Matter 29 465901 (2017);
         "P. Giannozzi et al., J. Chem. Phys. 152 154105 (2020);
          URL http://www.quantum-espresso.org", 
     in publications or presentations arising from this work. More details at
     http://www.quantum-espresso.org/quote

     Parallel version (MPI & OpenMP), running on       4 processor cores
     Number of MPI processes:                 4
     Threads/MPI process:                     1

     MPI processes distributed on     1 nodes
     752747 MiB available memory on the printing compute node when the environment starts
 
     Reading input from pw-si-36.in
Warning: card &CELL ignored
Warning: card / ignored

     Current dimensions of program PWSCF are:
     Max number of different atomic species (ntypx) = 10
     Max number of k-points (npk) =  40000
     Max angular momentum in pseudopotentials (lmaxx) =  4

     IMPORTANT: XC functional enforced from input :
     Exchange-correlation= PBE
                           (   1   4   3   4   0   0   0)
     Any further DFT definition will be discarded
     Please, verify this is what you really want


     gamma-point specific algorithms are used
 
     K-points division:     npool     =       2
     R & G space division:  proc/nbgrp/npool/nimage =       2
     Subspace diagonalization in iterative solution of the eigenvalue problem:
     a serial algorithm will be used

     Message from routine divide_et_impera:
     suboptimal parallelization: some nodes have no k-points
 
     Parallelization info
     --------------------
     sticks:   dense  smooth     PW     G-vecs:    dense   smooth      PW
     Min        2333    2333    611               120181   120181   16209
     Max        2336    2336    614               120188   120188   16214
     Sum        4669    4669   1225               240369   240369   32423
 
     Using Slab Decomposition
 


     bravais-lattice index     =            0
     lattice parameter (alat)  =      22.1160  a.u.
     unit-cell volume          =   10817.3495 (a.u.)^3
     number of atoms/cell      =           64
     number of atomic types    =            1
     number of electrons       =       256.00
     number of Kohn-Sham states=          154
     kinetic-energy cutoff     =      30.0000  Ry
     charge density cutoff     =     120.0000  Ry
     scf convergence threshold =      1.0E-06
     mixing beta               =       0.5000
     number of iterations used =            8  plain     mixing
     Exchange-correlation= PBE
                           (   1   4   3   4   0   0   0)

     GPU acceleration is ACTIVE.
     GPU-aware MPI enabled

     Message from routine print_cuda_info:
     High GPU oversubscription detected. Are you sure this is what you want?

     celldm(1)=  22.116019  celldm(2)=   0.000000  celldm(3)=   0.000000
     celldm(4)=   0.000000  celldm(5)=   0.000000  celldm(6)=   0.000000

     crystal axes: (cart. coord. in units of alat)
               a(1) = (   1.000000   0.000000   0.000000 )  
               a(2) = (   0.000000   1.000000   0.000000 )  
               a(3) = (   0.000000   0.000000   1.000000 )  

     reciprocal axes: (cart. coord. in units 2 pi/alat)
               b(1) = (  1.000000  0.000000  0.000000 )  
               b(2) = (  0.000000  1.000000  0.000000 )  
               b(3) = (  0.000000  0.000000  1.000000 )  


     PseudoPot. # 1 for Si read from file:
     /home/ppiaggi/pseudos/Si_ONCV_PBE_sr.upf
     MD5 check sum: 8553c464762ac42b85b1eed164b4d029
     Pseudo is Norm-conserving, Zval =  4.0
     Generated using ONCVPSP code by D. R. Hamann
     Using radial grid of 1510 points,  4 beta functions with: 
                l(1) =   0
                l(2) =   0
                l(3) =   1
                l(4) =   1

     atomic species   valence    mass     pseudopotential
        Si             4.00    28.08500     Si( 1.00)

     No symmetry found



   Cartesian axes

     site n.     atom                  positions (alat units)
         1           Si  tau(   1) = (   0.6214220   0.1643270   0.6618110  )
         2           Si  tau(   2) = (   0.8372310   0.8357060   0.4819060  )
         3           Si  tau(   3) = (   0.9905560   0.9540520   0.4262790  )
         4           Si  tau(   4) = (   0.9665650   0.5647920   0.4818670  )
         5           Si  tau(   5) = (   0.1881910   0.0871319   0.2678210  )
         6           Si  tau(   6) = (   0.5367800   0.8311330   0.0972050  )
         7           Si  tau(   7) = (   0.3389060   0.7642040   0.3938260  )
         8           Si  tau(   8) = (   0.3491830   0.2731770   0.9763630  )
         9           Si  tau(   9) = (   0.2535970   0.9491230   0.9418330  )
        10           Si  tau(  10) = (   0.9406720   0.9172210   0.7088880  )
        11           Si  tau(  11) = (   0.9309000   0.7153700   0.5985620  )
        12           Si  tau(  12) = (   0.8124300   0.6042160   0.3637210  )
        13           Si  tau(  13) = (   0.7563320   0.0947096   0.1102380  )
        14           Si  tau(  14) = (   0.8182890   0.2260410   0.6309690  )
        15           Si  tau(  15) = (   0.8799940   0.3278090   0.7914530  )
        16           Si  tau(  16) = (   0.2914620   0.0604477   0.5341870  )
        17           Si  tau(  17) = (   0.5143520   0.0299547   0.3637060  )
        18           Si  tau(  18) = (   0.6284080   0.4653870   0.0865658  )
        19           Si  tau(  19) = (   0.5357430   0.7720380   0.6293210  )
        20           Si  tau(  20) = (   0.4577690   0.6402150   0.0484648  )
        21           Si  tau(  21) = (   0.5629200   0.0276703   0.5513850  )
        22           Si  tau(  22) = (   0.0647083   0.0203332   0.8654000  )
        23           Si  tau(  23) = (   0.3560140   0.7086610   0.2066510  )
        24           Si  tau(  24) = (   0.1492760   0.2554590   0.5684220  )
        25           Si  tau(  25) = (   0.3422820   0.3378450   0.2182860  )
        26           Si  tau(  26) = (   0.0730891   0.5648730   0.6328970  )
        27           Si  tau(  27) = (   0.1610920   0.0252016   0.0697804  )
        28           Si  tau(  28) = (   0.5228460   0.7858230   0.2953410  )
        29           Si  tau(  29) = (   0.5645930   0.0164778   0.1610980  )
        30           Si  tau(  30) = (   0.7780460   0.0456935   0.6461930  )
        31           Si  tau(  31) = (   0.5440080   0.2106750   0.8764940  )
        32           Si  tau(  32) = (   0.1797160   0.2515800   0.3633520  )
        33           Si  tau(  33) = (   0.3793540   0.9314100   0.6812870  )
        34           Si  tau(  34) = (   0.6561600   0.0767828   0.9315500  )
        35           Si  tau(  35) = (   0.9343230   0.4739790   0.9245130  )
        36           Si  tau(  36) = (   0.5332900   0.4022420   0.8989420  )
        37           Si  tau(  37) = (   0.4640620   0.0149442   0.8726570  )
        38           Si  tau(  38) = (   0.6052080   0.8727740   0.8685410  )
        39           Si  tau(  39) = (   0.9055390   0.4047610   0.6077790  )
        40           Si  tau(  40) = (   0.9816140   0.3392950   0.2714570  )
        41           Si  tau(  41) = (   0.1847760   0.9175490   0.4065360  )
        42           Si  tau(  42) = (   0.7808860   0.3240380   0.1331170  )
        43           Si  tau(  43) = (   0.1614600   0.3153740   0.9158470  )
        44           Si  tau(  44) = (   0.1099190   0.5204040   0.0112152  )
        45           Si  tau(  45) = (   0.2597350   0.5086020   0.1763790  )
        46           Si  tau(  46) = (   0.2149180   0.6925500   0.5498910  )
        47           Si  tau(  47) = (   0.7393700   0.3934000   0.9347810  )
        48           Si  tau(  48) = (   0.1787430   0.3775260   0.7277120  )
        49           Si  tau(  49) = (   0.8733480   0.1747260   0.2352890  )
        50           Si  tau(  50) = (   0.6312300   0.6280310   0.2239370  )
        51           Si  tau(  51) = (   0.0943086   0.5461810   0.8079970  )
        52           Si  tau(  52) = (   0.9925140   0.3554500   0.0743218  )
        53           Si  tau(  53) = (   0.3529580   0.1632410   0.3450610  )
        54           Si  tau(  54) = (   0.2086870   0.8160510   0.0893497  )
        55           Si  tau(  55) = (   0.8802570   0.3076870   0.4300670  )
        56           Si  tau(  56) = (   0.1136900   0.1692680   0.7387290  )
        57           Si  tau(  57) = (   0.7271710   0.7673620   0.3128580  )
        58           Si  tau(  58) = (   0.7037210   0.8407420   0.7154660  )
        59           Si  tau(  59) = (   0.3538120   0.7364990   0.6941670  )
        60           Si  tau(  60) = (   0.7248210   0.6994370   0.5727290  )
        61           Si  tau(  61) = (   0.2540390   0.7453880   0.9096590  )
        62           Si  tau(  62) = (   0.0723259   0.8631750   0.5672790  )
        63           Si  tau(  63) = (   0.9507580   0.0347709   0.1274890  )
        64           Si  tau(  64) = (   0.4618550   0.5179330   0.2110070  )

     number of k points=     1  Fermi-Dirac smearing, width (Ry)=  0.0100
                       cart. coord. in units 2pi/alat
        k(    1) = (   0.0000000   0.0000000   0.0000000), wk =   2.0000000

     Dense  grid:   120185 G-vectors     FFT dimensions: (  80,  80,  80)

     Estimated max dynamical RAM per process >     192.38 MB

     Estimated total dynamical RAM >     740.18 MB

     Initial potential from superposition of free atoms

     starting charge     255.9608, renormalised to     256.0000
     Starting wfcs are  256 randomized atomic wfcs

     total cpu time spent up to now is        5.1 secs

     Self-consistent Calculation

     iteration #  1     ecut=    30.00 Ry     beta= 0.50
     Davidson diagonalization with overlap
     ethr =  1.00E-02,  avg # of iterations =  3.0

     Threshold (ethr) on eigenvalues was too large:
     Diagonalizing with lowered threshold

     Davidson diagonalization with overlap
     ethr =  7.64E-04,  avg # of iterations =  4.0

     total cpu time spent up to now is        5.4 secs

     total energy              =    -499.66662267 Ry
     estimated scf accuracy    <       2.54507649 Ry

     iteration #  2     ecut=    30.00 Ry     beta= 0.50
     Davidson diagonalization with overlap
     ethr =  9.94E-04,  avg # of iterations =  4.0

     total cpu time spent up to now is        5.6 secs

     total energy              =    -498.92216941 Ry
     estimated scf accuracy    <       8.33410428 Ry

     iteration #  3     ecut=    30.00 Ry     beta= 0.50
     Davidson diagonalization with overlap
     ethr =  9.94E-04,  avg # of iterations =  5.0

     total cpu time spent up to now is        5.7 secs

     total energy              =    -499.68292793 Ry
     estimated scf accuracy    <       8.04694163 Ry

     iteration #  4     ecut=    30.00 Ry     beta= 0.50
     Davidson diagonalization with overlap
     ethr =  9.94E-04,  avg # of iterations =  3.0

     total cpu time spent up to now is        5.9 secs

     total energy              =    -500.16031816 Ry
     estimated scf accuracy    <       1.12755891 Ry

     iteration #  5     ecut=    30.00 Ry     beta= 0.50
     Davidson diagonalization with overlap
     ethr =  4.40E-04,  avg # of iterations =  2.0

     total cpu time spent up to now is        6.0 secs

     total energy              =    -500.24126157 Ry
     estimated scf accuracy    <       1.00746681 Ry

     iteration #  6     ecut=    30.00 Ry     beta= 0.50
     Davidson diagonalization with overlap
     ethr =  3.94E-04,  avg # of iterations =  1.0

     total cpu time spent up to now is        6.1 secs

     total energy              =    -500.31735567 Ry
     estimated scf accuracy    <       0.13641952 Ry

     iteration #  7     ecut=    30.00 Ry     beta= 0.50
     Davidson diagonalization with overlap
     ethr =  5.33E-05,  avg # of iterations =  3.0

     total cpu time spent up to now is        6.2 secs

     total energy              =    -500.33476213 Ry
     estimated scf accuracy    <       0.04978816 Ry

     iteration #  8     ecut=    30.00 Ry     beta= 0.50
     Davidson diagonalization with overlap
     ethr =  1.94E-05,  avg # of iterations = 15.0

     total cpu time spent up to now is        6.4 secs

     total energy              =    -500.33891811 Ry
     estimated scf accuracy    <       0.03819202 Ry

     iteration #  9     ecut=    30.00 Ry     beta= 0.50
     Davidson diagonalization with overlap
     ethr =  1.49E-05,  avg # of iterations =  2.0

     total cpu time spent up to now is        6.6 secs

     total energy              =    -500.34149889 Ry
     estimated scf accuracy    <       0.01510100 Ry

     iteration # 10     ecut=    30.00 Ry     beta= 0.50
     Davidson diagonalization with overlap
     ethr =  5.90E-06,  avg # of iterations =  3.0

     total cpu time spent up to now is        6.7 secs

     total energy              =    -500.34277812 Ry
     estimated scf accuracy    <       0.00743857 Ry

     iteration # 11     ecut=    30.00 Ry     beta= 0.50
     Davidson diagonalization with overlap
     ethr =  2.91E-06,  avg # of iterations = 15.0

     total cpu time spent up to now is        6.9 secs

     total energy              =    -500.34326418 Ry
     estimated scf accuracy    <       0.00222931 Ry

     iteration # 12     ecut=    30.00 Ry     beta= 0.50
     Davidson diagonalization with overlap
     ethr =  8.71E-07,  avg # of iterations =  2.0

     total cpu time spent up to now is        7.0 secs

     total energy              =    -500.34344782 Ry
     estimated scf accuracy    <       0.00193398 Ry

     iteration # 13     ecut=    30.00 Ry     beta= 0.50
     Davidson diagonalization with overlap
     ethr =  7.55E-07,  avg # of iterations =  2.0

     total cpu time spent up to now is        7.1 secs

     total energy              =    -500.34360925 Ry
     estimated scf accuracy    <       0.00040098 Ry

     iteration # 14     ecut=    30.00 Ry     beta= 0.50
     Davidson diagonalization with overlap
     ethr =  1.57E-07,  avg # of iterations =  2.0

     total cpu time spent up to now is        7.3 secs

     total energy              =    -500.34365001 Ry
     estimated scf accuracy    <       0.00023595 Ry

     iteration # 15     ecut=    30.00 Ry     beta= 0.50
     Davidson diagonalization with overlap
     ethr =  9.22E-08,  avg # of iterations =  1.0

     total cpu time spent up to now is        7.4 secs

     total energy              =    -500.34366760 Ry
     estimated scf accuracy    <       0.00002248 Ry

     iteration # 16     ecut=    30.00 Ry     beta= 0.50
     Davidson diagonalization with overlap
     ethr =  8.78E-09,  avg # of iterations =  5.0

     total cpu time spent up to now is        7.5 secs

     total energy              =    -500.34367001 Ry
     estimated scf accuracy    <       0.00004543 Ry

     iteration # 17     ecut=    30.00 Ry     beta= 0.50
     Davidson diagonalization with overlap
     ethr =  8.78E-09,  avg # of iterations =  3.0

     total cpu time spent up to now is        7.7 secs

     total energy              =    -500.34367359 Ry
     estimated scf accuracy    <       0.00001730 Ry

     iteration # 18     ecut=    30.00 Ry     beta= 0.50
     Davidson diagonalization with overlap
     ethr =  6.76E-09,  avg # of iterations =  2.0

     total cpu time spent up to now is        7.8 secs

     total energy              =    -500.34367478 Ry
     estimated scf accuracy    <       0.00000404 Ry

     iteration # 19     ecut=    30.00 Ry     beta= 0.50
     Davidson diagonalization with overlap
     ethr =  1.58E-09,  avg # of iterations =  3.0

     total cpu time spent up to now is        7.9 secs

     total energy              =    -500.34367476 Ry
     estimated scf accuracy    <       0.00000695 Ry

     iteration # 20     ecut=    30.00 Ry     beta= 0.50
     Davidson diagonalization with overlap
     ethr =  1.58E-09,  avg # of iterations =  2.0

     total cpu time spent up to now is        8.1 secs

     total energy              =    -500.34367521 Ry
     estimated scf accuracy    <       0.00000322 Ry

     iteration # 21     ecut=    30.00 Ry     beta= 0.50
     Davidson diagonalization with overlap
     ethr =  1.26E-09,  avg # of iterations =  2.0

     total cpu time spent up to now is        8.2 secs

     total energy              =    -500.34367545 Ry
     estimated scf accuracy    <       0.00000132 Ry

     iteration # 22     ecut=    30.00 Ry     beta= 0.50
     Davidson diagonalization with overlap
     ethr =  5.16E-10,  avg # of iterations =  1.0

     total cpu time spent up to now is        8.3 secs

     End of self-consistent calculation

          k = 0.0000 0.0000 0.0000 ( 15024 PWs)   bands (ev):

    -8.5274  -8.2749  -7.9404  -7.6126  -7.4737  -7.3790  -7.2455  -7.0412
    -6.9024  -6.8555  -6.7010  -6.6140  -6.4336  -6.3020  -6.0414  -5.8758
    -5.6404  -5.5364  -5.3446  -5.1720  -5.0915  -5.0419  -4.8312  -4.6594
    -4.4242  -4.3728  -4.2658  -4.1448  -4.0132  -3.9104  -3.8113  -3.6248
    -3.5349  -3.3583  -3.2988  -3.1465  -3.0525  -2.9892  -2.8631  -2.7381
    -2.6196  -2.5507  -2.4541  -2.2370  -2.1147  -1.9999  -1.9054  -1.7956
    -1.7585  -1.5587  -1.5004  -1.3122  -1.2716  -1.1545  -1.0373  -0.9946
    -0.9485  -0.7087  -0.6276  -0.4609  -0.3846  -0.2374  -0.1840  -0.0633
     0.0131   0.0589   0.1861   0.2606   0.2996   0.3674   0.4947   0.5128
     0.5489   0.6800   0.7142   0.7264   0.8791   0.9461   0.9991   1.0744
     1.1548   1.1751   1.3125   1.3472   1.4046   1.4335   1.5006   1.5550
     1.7431   1.7686   1.8659   1.9380   2.0003   2.0521   2.1302   2.1985
     2.2135   2.2936   2.3083   2.4217   2.4442   2.4912   2.5217   2.6098
     2.6556   2.7542   2.7816   2.8595   2.8910   2.9649   3.1463   3.1822
     3.2627   3.2849   3.3041   3.3878   3.4193   3.5596   3.5952   3.6273
     3.7198   3.7541   3.8515   3.9371   3.9679   4.0280   4.1334   4.1450
     4.1791   4.2862   4.3026   4.3800   4.4691   4.5125   4.5813   4.6284
     4.7103   4.7451   4.8955   4.9056   5.0424   5.1107   5.1504   5.1604
     5.1926   5.2615   5.3565   5.4297   5.4525   5.5223   5.5865   5.6621
     5.6970   5.7793

     the Fermi energy is     4.1806 ev

!    total energy              =    -500.34367550 Ry
     estimated scf accuracy    <       0.00000011 Ry
     smearing contrib. (-TS)   =      -0.14715571 Ry
     internal energy E=F+TS    =    -500.19651979 Ry

     The total energy is F=E-TS. E is the sum of the following terms:
     one-electron contribution =     -86.02639564 Ry
     hartree contribution      =     133.15577571 Ry
     xc contribution           =    -150.64833989 Ry
     ewald contribution        =    -396.67755997 Ry

     convergence has been achieved in  22 iterations

     Forces acting on atoms (cartesian axes, Ry/au):

     atom    1 type  1   force =    -0.01419981    0.09598373    0.09061434
     atom    2 type  1   force =    -0.03081466    0.06175107   -0.05540234
     atom    3 type  1   force =    -0.05301994    0.06924494   -0.07673742
     atom    4 type  1   force =    -0.02797353   -0.07220309   -0.09817388
     atom    5 type  1   force =    -0.00929174   -0.07945894   -0.02974854
     atom    6 type  1   force =     0.01172267   -0.02332965   -0.03881367
     atom    7 type  1   force =    -0.01097002    0.02272493    0.04033549
     atom    8 type  1   force =     0.03616070    0.02028635    0.02430445
     atom    9 type  1   force =     0.13532031   -0.03520965   -0.15783350
     atom   10 type  1   force =    -0.00164318    0.00750810    0.01673927
     atom   11 type  1   force =     0.00373610    0.00957471    0.07344814
     atom   12 type  1   force =    -0.01962880   -0.03647635    0.00339314
     atom   13 type  1   force =    -0.05661444   -0.02788320   -0.04460826
     atom   14 type  1   force =    -0.00937312    0.03903185   -0.03439614
     atom   15 type  1   force =     0.00964469   -0.00309933    0.01909353
     atom   16 type  1   force =    -0.01320108   -0.00934328    0.00970005
     atom   17 type  1   force =    -0.02551297   -0.01420592   -0.05382763
     atom   18 type  1   force =    -0.02633479   -0.00285853    0.02578570
     atom   19 type  1   force =    -0.00060459    0.00916419   -0.02280135
     atom   20 type  1   force =    -0.01380147    0.00325323   -0.07399687
     atom   21 type  1   force =    -0.01730744   -0.08059902   -0.00214942
     atom   22 type  1   force =    -0.00790807   -0.00847546   -0.00325710
     atom   23 type  1   force =    -0.08475414    0.00012919   -0.02212469
     atom   24 type  1   force =    -0.01300869   -0.01846516   -0.01681694
     atom   25 type  1   force =     0.01021825   -0.04952868   -0.01398914
     atom   26 type  1   force =     0.05125829   -0.00480426   -0.05942677
     atom   27 type  1   force =    -0.10721033    0.08122953    0.13698650
     atom   28 type  1   force =     0.01882353    0.06666782    0.08045012
     atom   29 type  1   force =     0.01962978    0.01825380    0.00598091
     atom   30 type  1   force =     0.00210509   -0.13484199   -0.00681446
     atom   31 type  1   force =    -0.05528282    0.02160339   -0.05968204
     atom   32 type  1   force =    -0.06883453    0.09036616    0.00054269
     atom   33 type  1   force =     0.02579517    0.06447553   -0.01288674
     atom   34 type  1   force =     0.07396528   -0.07659613    0.03428277
     atom   35 type  1   force =    -0.04147297    0.01560475   -0.03776634
     atom   36 type  1   force =    -0.02094283    0.03608356    0.02849931
     atom   37 type  1   force =    -0.07919969   -0.02283321   -0.02259977
     atom   38 type  1   force =    -0.03448390    0.02500273    0.10002277
     atom   39 type  1   force =     0.03171990    0.03650702   -0.02726679
     atom   40 type  1   force =     0.06010735    0.02927052    0.00374563
     atom   41 type  1   force =     0.07223565    0.01997295   -0.03775932
     atom   42 type  1   force =    -0.00632102    0.01309507   -0.03494526
     atom   43 type  1   force =    -0.02011486   -0.01995263    0.03226415
     atom   44 type  1   force =     0.05750526    0.01439712    0.02502738
     atom   45 type  1   force =    -0.03551532    0.04340305   -0.02981965
     atom   46 type  1   force =     0.00777365    0.02809970    0.01165562
     atom   47 type  1   force =     0.01485675   -0.00697949   -0.03069020
     atom   48 type  1   force =     0.01739887    0.01175882   -0.03201967
     atom   49 type  1   force =     0.03859723    0.02179978    0.08349732
     atom   50 type  1   force =     0.01183208   -0.05103610   -0.04790101
     atom   51 type  1   force =     0.02127245    0.00462823    0.15114095
     atom   52 type  1   force =     0.00928603   -0.03688313   -0.02760230
     atom   53 type  1   force =     0.07722429   -0.01950073    0.00528216
     atom   54 type  1   force =    -0.01060455   -0.01478320    0.03321492
     atom   55 type  1   force =    -0.02078121   -0.01014395    0.06186325
     atom   56 type  1   force =    -0.01495702   -0.00234323    0.04204610
     atom   57 type  1   force =     0.01924121    0.10130885    0.03072557
     atom   58 type  1   force =     0.05835566    0.02039569   -0.04220754
     atom   59 type  1   force =    -0.02977778   -0.01519794    0.03014716
     atom   60 type  1   force =    -0.02389541   -0.03776680    0.00076424
     atom   61 type  1   force =     0.01374856   -0.04394518   -0.02761125
     atom   62 type  1   force =     0.06642970   -0.06003398    0.08035422
     atom   63 type  1   force =     0.02169327   -0.03300034   -0.01672707
     atom   64 type  1   force =     0.00769893   -0.05079782    0.01649527

     Total force =     0.649902     Total SCF correction =     0.000572


     Computing stress (Cartesian axis) and pressure

          total   stress  (Ry/bohr**3)                   (kbar)     P=       17.21
   0.00006600  -0.00003391   0.00004048            9.71       -4.99        5.95
  -0.00003391   0.00009691  -0.00000243           -4.99       14.26       -0.36
   0.00004048  -0.00000243   0.00018800            5.95       -0.36       27.66

 
     init_run     :      1.13s CPU      5.06s WALL (       1 calls)
     electrons    :      2.95s CPU      3.15s WALL (       1 calls)
     forces       :      0.04s CPU      0.05s WALL (       1 calls)
     stress       :      0.20s CPU      0.20s WALL (       1 calls)

     Called by init_run:
     wfcinit      :      0.58s CPU      4.30s WALL (       1 calls)
                                        4.30s GPU  (       1 calls)
     potinit      :      0.06s CPU      0.15s WALL (       1 calls)
     hinit0       :      0.47s CPU      0.50s WALL (       1 calls)

     Called by electrons:
     c_bands      :      1.56s CPU      1.63s WALL (      23 calls)
     sum_band     :      0.67s CPU      0.75s WALL (      23 calls)
     v_of_rho     :      0.32s CPU      0.44s WALL (      23 calls)
     mix_rho      :      0.31s CPU      0.34s WALL (      23 calls)

     Called by c_bands:
     init_us_2    :      0.09s CPU      0.09s WALL (      47 calls)
     init_us_2:gp :      0.08s CPU      0.09s WALL (      47 calls)
     regterg      :      1.34s CPU      1.41s WALL (      23 calls)

     Called by *egterg:
     rdiaghg      :      0.48s CPU      1.24s WALL (     107 calls)
                                        1.22s GPU  (     107 calls)
     h_psi        :      1.20s CPU      4.21s WALL (     109 calls)
                                        4.21s GPU  (     109 calls)
     g_psi        :      0.00s CPU      0.01s WALL (      85 calls)
                                        0.00s GPU  (      85 calls)

     Called by h_psi:
     h_psi:calbec :      0.54s CPU      3.45s WALL (     109 calls)
                                        3.44s GPU  (     109 calls)
     vloc_psi     :      0.59s CPU      0.68s WALL (     109 calls)
                                        0.68s GPU  (     109 calls)
     add_vuspsi   :      0.04s CPU      0.07s WALL (     109 calls)
                                        0.07s GPU  (     109 calls)

     General routines
     calbec       :      0.55s CPU      3.45s WALL (     114 calls)
     fft          :      0.80s CPU      0.95s WALL (     191 calls)
                                        0.14s GPU  (     121 calls)
     ffts         :      0.12s CPU      0.14s WALL (      23 calls)
     fftw         :      0.69s CPU      0.89s WALL (    2415 calls)
                                        0.76s GPU  (    2415 calls)
 
     Parallel routines
 
     PWSCF        :      4.37s CPU      8.55s WALL

 
   This run was terminated on:  14:22: 1  10May2023            

=------------------------------------------------------------------------------=
   JOB DONE.
=------------------------------------------------------------------------------=
